 Entering Gaussian System
 *********************************************
 Gaussian 98:
 frequency output generated by the xtb code
 *********************************************
                         Standard orientation:
 --------------------------------------------------------------------
  Center     Atomic     Atomic              Coordinates (Angstroms)
  Number     Number      Type              X           Y           Z
 --------------------------------------------------------------------
    1          6             0        0.049415    0.013909   -0.030953
    2          6             0       -0.023837    0.336065    2.221236
    3          6             0        1.486867   -0.082653    0.337851
    4          8             0       -0.774385    0.003554    1.172068
    5          8             0        1.121492    0.770450    2.020787
    6          1             0        2.186762    0.597946   -0.107259
    7          1             0        1.866435   -1.036957    0.658936
    8          1             0       -0.375592   -0.063698    3.173683
    9          1             0       -0.163361    0.943269   -0.565864
   10          1             0       -0.310322   -0.842222   -0.605724
 --------------------------------------------------------------------
     1 basis functions        1 primitive gaussians
     1 alpha electrons        1 beta electrons

 Harmonic frequencies (cm**-1), IR intensities (km*mol⁻¹),
 Raman scattering activities (A**4/amu), Raman depolarization ratios,
 reduced masses (AMU), force constants (mDyne/A) and normal coordinates:
                      1                      2                      3
                        a                      a                      a 
 Frequencies --  -468.6965               169.5786               421.8537
 Red. masses --    12.6783                 8.8357                 9.9891
 Frc consts  --     0.0000                 0.0000                 0.0000
 IR Inten    --   163.0865                 1.2988                23.3122
 Raman Activ --     0.0000                 0.0000                 0.0000
 Depolar     --     0.0000                 0.0000                 0.0000
 Atom AN      X      Y      Z        X      Y      Z        X      Y      Z
   1   6     0.05  -0.01  -0.08     0.00   0.40   0.07     0.04  -0.03  -0.08
   2   6     0.06  -0.03  -0.05     0.02   0.04  -0.01     0.22  -0.54   0.04
   3   6     0.06  -0.27  -0.61    -0.04  -0.30   0.11    -0.04  -0.12   0.06
   4   8     0.13  -0.01   0.09     0.11  -0.44   0.02    -0.04   0.36  -0.00
   5   8    -0.22   0.22   0.57    -0.09   0.26  -0.20    -0.19   0.40  -0.03
   6   1     0.01  -0.01  -0.06     0.10  -0.23  -0.01     0.06  -0.18  -0.09
   7   1     0.01  -0.03  -0.06    -0.18  -0.13   0.10    -0.10  -0.00   0.23
   8   1    -0.18   0.22   0.02     0.04   0.03   0.01     0.19  -0.37  -0.04
   9   1    -0.00   0.01   0.01     0.11   0.27   0.24     0.04  -0.05  -0.10
  10   1    -0.08   0.01   0.00    -0.07   0.30  -0.20    -0.02  -0.05   0.06
                      4                      5                      6
                        a                      a                      a 
 Frequencies --   545.9959               651.1350               744.5768
 Red. masses --    10.8777                 3.9473                 8.6393
 Frc consts  --     0.0000                 0.0000                 0.0000
 IR Inten    --    13.4362                 1.7409                11.3291
 Raman Activ --     0.0000                 0.0000                 0.0000
 Depolar     --     0.0000                 0.0000                 0.0000
 Atom AN      X      Y      Z        X      Y      Z        X      Y      Z
   1   6    -0.24  -0.01  -0.28     0.01  -0.02  -0.32    -0.14  -0.03   0.16
   2   6     0.10   0.11  -0.08     0.05   0.02   0.08     0.31  -0.39  -0.34
   3   6    -0.38   0.15   0.20    -0.22  -0.16   0.07    -0.02   0.01   0.23
   4   8     0.26  -0.18  -0.22     0.17   0.00   0.09    -0.29   0.01  -0.12
   5   8     0.29   0.04   0.39    -0.02   0.13  -0.03     0.20   0.17   0.05
   6   1    -0.00  -0.18  -0.11     0.03   0.31   0.72    -0.08   0.13   0.16
   7   1    -0.26   0.05   0.26    -0.09  -0.16  -0.27     0.08  -0.01  -0.06
   8   1    -0.04  -0.01  -0.07     0.08  -0.10   0.01    -0.19   0.51   0.03
   9   1    -0.14  -0.06  -0.16    -0.05  -0.01  -0.07     0.02   0.03   0.09
  10   1     0.02  -0.08  -0.03    -0.03  -0.03  -0.03     0.03   0.04  -0.08
                      7                      8                      9
                        a                      a                      a 
 Frequencies --   770.7623               804.6074               851.4698
 Red. masses --     4.0298                 4.7701                 9.8378
 Frc consts  --     0.0000                 0.0000                 0.0000
 IR Inten    --    16.1277                 8.6773                20.4196
 Raman Activ --     0.0000                 0.0000                 0.0000
 Depolar     --     0.0000                 0.0000                 0.0000
 Atom AN      X      Y      Z        X      Y      Z        X      Y      Z
   1   6    -0.11  -0.05   0.19    -0.09  -0.16   0.12     0.14   0.13  -0.07
   2   6    -0.01   0.06  -0.04     0.02   0.21  -0.25     0.03   0.14  -0.30
   3   6    -0.00  -0.07   0.21    -0.04  -0.17  -0.07     0.18   0.06  -0.08
   4   8     0.10   0.02  -0.22    -0.17  -0.04  -0.09    -0.55  -0.17   0.23
   5   8     0.01   0.19   0.17     0.18   0.07   0.20     0.18   0.05   0.17
   6   1    -0.14  -0.08  -0.28    -0.21   0.24   0.10     0.27  -0.15   0.08
   7   1     0.06  -0.27  -0.72     0.30   0.18   0.25    -0.24  -0.13  -0.10
   8   1     0.05  -0.24  -0.10     0.21  -0.40  -0.17     0.21  -0.17  -0.08
   9   1     0.01  -0.01   0.02     0.21   0.11   0.19    -0.16  -0.06  -0.08
  10   1     0.02  -0.01   0.01    -0.19   0.15  -0.14     0.21  -0.11   0.09
                     10                     11                     12
                        a                      a                      a 
 Frequencies --   884.1632              1065.8606              1087.3362
 Red. masses --     8.9742                10.4103                 7.9345
 Frc consts  --     0.0000                 0.0000                 0.0000
 IR Inten    --    21.3418                30.5198                49.3798
 Raman Activ --     0.0000                 0.0000                 0.0000
 Depolar     --     0.0000                 0.0000                 0.0000
 Atom AN      X      Y      Z        X      Y      Z        X      Y      Z
   1   6     0.23  -0.18  -0.61     0.52   0.13   0.15     0.16   0.24   0.03
   2   6    -0.00  -0.00   0.12    -0.05  -0.04  -0.42     0.06   0.03   0.42
   3   6    -0.05   0.06   0.21    -0.49  -0.00   0.03    -0.23  -0.24  -0.12
   4   8    -0.22   0.00   0.30     0.16  -0.00   0.24    -0.26  -0.12  -0.27
   5   8     0.04   0.02   0.07    -0.08  -0.08  -0.04     0.13   0.08   0.01
   6   1    -0.15  -0.05  -0.28    -0.27   0.06  -0.10    -0.25   0.12  -0.06
   7   1     0.14   0.01  -0.14    -0.07   0.02  -0.02     0.14   0.05   0.04
   8   1     0.05   0.12   0.11    -0.00   0.02  -0.09     0.12   0.05   0.15
   9   1     0.17   0.11   0.08     0.09  -0.01  -0.01     0.09  -0.07  -0.23
  10   1    -0.13   0.12  -0.27     0.01  -0.06   0.26     0.46  -0.10  -0.03
                     13                     14                     15
                        a                      a                      a 
 Frequencies --  1099.2333              1179.9356              1228.0972
 Red. masses --     6.6639                 4.0214                 3.1386
 Frc consts  --     0.0000                 0.0000                 0.0000
 IR Inten    --    10.4388                 9.3915                11.7945
 Raman Activ --     0.0000                 0.0000                 0.0000
 Depolar     --     0.0000                 0.0000                 0.0000
 Atom AN      X      Y      Z        X      Y      Z        X      Y      Z
   1   6     0.22  -0.42   0.22     0.13  -0.03   0.08     0.07   0.00  -0.01
   2   6    -0.00   0.01   0.13    -0.02  -0.02   0.16     0.10   0.02   0.20
   3   6    -0.26   0.24  -0.22    -0.05   0.18  -0.08    -0.04   0.04  -0.05
   4   8    -0.03   0.12  -0.14    -0.15  -0.16  -0.27    -0.14  -0.09   0.10
   5   8     0.04   0.02   0.00     0.10   0.04   0.05     0.19   0.11  -0.12
   6   1     0.14  -0.07   0.08     0.13  -0.04   0.07     0.03  -0.01   0.01
   7   1    -0.37  -0.05  -0.04    -0.15  -0.03  -0.08    -0.04  -0.00  -0.02
   8   1     0.03  -0.01   0.04     0.20   0.12   0.16    -0.76  -0.27  -0.35
   9   1     0.09   0.08   0.37     0.40  -0.04  -0.18     0.22  -0.01  -0.10
  10   1     0.23   0.08  -0.33    -0.57   0.03   0.34    -0.06  -0.01   0.06
                     16                     17                     18
                        a                      a                      a 
 Frequencies --  1282.1391              1387.2855              1439.3388
 Red. masses --     4.2701                 2.3161                 2.2819
 Frc consts  --     0.0000                 0.0000                 0.0000
 IR Inten    --    12.0371                 2.5666                 0.7523
 Raman Activ --     0.0000                 0.0000                 0.0000
 Depolar     --     0.0000                 0.0000                 0.0000
 Atom AN      X      Y      Z        X      Y      Z        X      Y      Z
   1   6     0.32   0.01  -0.07    -0.01   0.02  -0.04    -0.20   0.01  -0.24
   2   6    -0.05  -0.03   0.18    -0.05  -0.03  -0.00    -0.01  -0.00   0.02
   3   6     0.01  -0.10   0.02    -0.33   0.03  -0.04     0.13  -0.01   0.00
   4   8    -0.11   0.00  -0.24     0.01   0.00  -0.03     0.01   0.00  -0.04
   5   8     0.16   0.09  -0.01     0.04   0.03   0.00     0.01   0.00   0.00
   6   1    -0.10   0.06  -0.03     0.45  -0.41   0.15    -0.13   0.13  -0.05
   7   1     0.01  -0.01   0.05     0.58   0.21  -0.13    -0.18  -0.07   0.05
   8   1    -0.09  -0.04  -0.00    -0.00   0.01   0.01     0.01   0.00   0.01
   9   1    -0.68   0.04   0.36     0.02   0.11   0.18     0.29   0.34   0.46
  10   1    -0.30   0.00   0.21     0.09  -0.13   0.15     0.21  -0.41   0.44
                     19                     20                     21
                        a                      a                      a 
 Frequencies --  1499.5454              2904.1507              2953.2800
 Red. masses --    13.1455                 1.7261                 1.8360
 Frc consts  --     0.0000                 0.0000                 0.0000
 IR Inten    --   260.7542                17.9741                22.7414
 Raman Activ --     0.0000                 0.0000                 0.0000
 Depolar     --     0.0000                 0.0000                 0.0000
 Atom AN      X      Y      Z        X      Y      Z        X      Y      Z
   1   6     0.06  -0.01  -0.02    -0.00  -0.00   0.01    -0.04   0.26  -0.09
   2   6     0.72   0.30   0.05     0.09   0.08  -0.22     0.00   0.00  -0.00
   3   6    -0.05   0.06   0.09    -0.00   0.00   0.01    -0.00  -0.01   0.01
   4   8    -0.12  -0.05  -0.13    -0.00   0.00  -0.02     0.00   0.00  -0.01
   5   8    -0.50  -0.24   0.02     0.01   0.01  -0.01     0.00  -0.00  -0.00
   6   1     0.02  -0.03   0.01    -0.00  -0.00   0.00     0.01   0.01  -0.00
   7   1     0.02   0.02  -0.01     0.00   0.00  -0.00    -0.02   0.04  -0.02
   8   1     0.00  -0.01  -0.09    -0.32  -0.33   0.85    -0.00  -0.01   0.01
   9   1    -0.05   0.02   0.06    -0.00   0.01  -0.01     0.18  -0.80   0.46
  10   1    -0.05  -0.01   0.05     0.00   0.01   0.00    -0.07  -0.12  -0.11
                     22                     23                     24
                        a                      a                      a 
 Frequencies --  2965.8038              3113.7935              3166.9984
 Red. masses --     1.6321                 1.5255                 2.0585
 Frc consts  --     0.0000                 0.0000                 0.0000
 IR Inten    --    11.3514                12.2179                 8.2815
 Raman Activ --     0.0000                 0.0000                 0.0000
 Depolar     --     0.0000                 0.0000                 0.0000
 Atom AN      X      Y      Z        X      Y      Z        X      Y      Z
   1   6    -0.10  -0.16  -0.15     0.00  -0.01   0.00     0.00  -0.01   0.01
   2   6     0.00  -0.00   0.00    -0.00  -0.00   0.00     0.00  -0.00  -0.00
   3   6    -0.00  -0.00  -0.01     0.16  -0.14   0.04    -0.12  -0.25   0.13
   4   8     0.00  -0.00  -0.01    -0.00  -0.00  -0.00     0.00   0.00   0.00
   5   8    -0.00   0.00   0.00     0.00   0.00  -0.00    -0.00   0.00   0.00
   6   1    -0.01  -0.01   0.00    -0.25  -0.28   0.17     0.57   0.55  -0.36
   7   1     0.00   0.00   0.00    -0.30   0.79  -0.28    -0.15   0.33  -0.11
   8   1     0.00   0.00  -0.00     0.00  -0.00  -0.00    -0.00   0.00   0.00
   9   1     0.02  -0.19   0.07    -0.00   0.03  -0.01    -0.00   0.02  -0.01
  10   1     0.30   0.75   0.49    -0.00   0.00   0.00     0.00   0.01   0.01
