4
Properties=species:S:1:pos:R:3:forces:R:3:charge:R:1 0=T 1=T energy=-193.01517591809363 free_energy=-193.01517591809363 dipole="0.3692920623762191 -0.09845202243557989 8.018729307037716e-17" pbc="F F F"
C        0.59127458       0.07107187      -0.00000000      -0.00950546       0.00424405       0.00000000      -0.08258850
O        1.88750980       0.22245999      -0.00000000       0.00225958      -0.01587437      -0.00000000      -0.25633409
H        0.17558419       1.10517199       0.00000000       0.01459979      -0.00962424       0.00000000       0.03354514
H        2.34394704      -0.64027776       0.00000000      -0.00735390       0.02125456      -0.00000000       0.30537745
4
Properties=species:S:1:pos:R:3:forces:R:3:charge:R:1 0=T 1=T energy=-193.01517036282573 free_energy=-193.01517036282573 dipole="0.36118251510857186 -0.12779631511741668 1.2858678827181984e-06" pbc="F F F"
C        0.48245688       0.11978197      -0.00000062       0.00919596       0.00589597       0.00000006      -0.08262921
O        1.78665477       0.16510096       0.00000390       0.00979252       0.00013556       0.00000008      -0.25639586
H        0.15701271       1.18513577      -0.00000196      -0.01525462       0.00127685      -0.00000009       0.03389804
H        2.17339101      -0.73032666       0.00000544      -0.00373386      -0.00730837      -0.00000005       0.30512703
4
Properties=species:S:1:pos:R:3:forces:R:3:charge:R:1 0=T 1=T energy=-193.01515104522016 free_energy=-193.01515104522016 dipole="0.3454153180525481 -0.1621375995516533 2.7791209402289915e-06" pbc="F F F"
C        0.38077887       0.17956115      -0.00000155      -0.00965538       0.00639412      -0.00000002      -0.08276248
O        1.68332202       0.10033096       0.00000817      -0.00828816      -0.00902833       0.00000003      -0.25647113
H        0.15577432       1.27019857      -0.00000468      -0.00615367       0.01251975      -0.00000013       0.03367214
H        1.97768532      -0.82928088       0.00001163       0.02409721      -0.00988554       0.00000011       0.30556147
4
Properties=species:S:1:pos:R:3:forces:R:3:charge:R:1 0=T 1=T energy=-192.76560919397988 free_energy=-192.76560919397988 dipole="0.23733366698623937 -0.19408480127612182 3.079258018377422e-06" pbc="F F F"
C        0.41721635       0.21303175      -0.00000149      -0.82022224       0.31121275      -0.00000806      -0.09045393
O        1.72270911       0.09513898       0.00001129      -0.95878996      -0.49289749      -0.00000594      -0.27313766
H        0.13201699       1.26994229      -0.00000704       0.17722214       0.64926738      -0.00000139       0.02482403
H        1.70484247      -0.86767438       0.00001456       1.60179006      -0.46758264       0.00001540       0.33876756
4
Properties=species:S:1:pos:R:3:forces:R:3:charge:R:1 0=T 1=T energy=-191.8181710132677 free_energy=-191.8181710132677 dipole="0.08585634379932719 -0.2262015264148521 1.882546206295966e-06" pbc="F F F"
C        0.51457746       0.17592824      -0.00000036      -1.74857276       0.77299026      -0.00001914      -0.09275107
O        1.84119437       0.15497808       0.00001198      -1.30665021      -2.06591034      -0.00000339      -0.33475531
H        0.11002813       1.19097521      -0.00000691       0.11222726       0.93657307      -0.00000241       0.02161525
H        1.51079293      -0.81145192       0.00001262       2.94299571       0.35634702       0.00002494       0.40589113
4
Properties=species:S:1:pos:R:3:forces:R:3:charge:R:1 0=T 1=T energy=-191.4600333567181 free_energy=-191.4600333567181 dipole="-0.2483157826062945 -0.24879767522602822 -1.1517316458696543e-06" pbc="F F F"
C        0.63017100       0.12517981       0.00000096       1.64882587      -0.58006593       0.00001911      -0.01265184
O        1.92621415       0.29030707       0.00001221       1.11330610       1.87934026       0.00000264      -0.41339102
H        0.10210858       1.12940799      -0.00000679      -0.10499974      -0.89337125       0.00000138       0.06315025
H        1.31787073      -0.83447599       0.00001095      -2.65713223      -0.40590307      -0.00002312       0.36289260
4
Properties=species:S:1:pos:R:3:forces:R:3:charge:R:1 0=T 1=T energy=-193.50252226460606 free_energy=-193.50252226460606 dipole="-0.4715554995935924 -0.18313884876796954 -3.4599218477316525e-06" pbc="F F F"
C        0.77990305       0.13025954       0.00000239       3.26007038       0.11218434       0.00003185       0.10945652
O        1.97761496       0.43705316       0.00001201       1.13539594       3.21666885      -0.00000292      -0.36619674
H        0.09588707       1.04523487      -0.00000655      -0.14678847      -1.84287312       0.00000410       0.08666492
H        1.12538359      -0.90201481       0.00000944      -4.24867784      -1.48598007      -0.00003303       0.17007529
4
Properties=species:S:1:pos:R:3:forces:R:3:charge:R:1 0=T 1=T energy=-195.1261418695351 free_energy=-195.1261418695351 dipole="-0.46355608606965554 -0.1730458405757626 -3.2350888137863898e-06" pbc="F F F"
C        0.94191060       0.16719752       0.00000385       0.80920556       0.20213009       0.00000697       0.17230924
O        2.06285881       0.58169118       0.00001173       0.43893192       0.71384095       0.00000064      -0.28678072
H        0.09256774       0.88721647      -0.00000594      -0.04082862      -0.78151124       0.00000232       0.05510066
H        0.88441382      -0.92543326       0.00000761      -1.20730887      -0.13445980      -0.00000992       0.05937082
4
Properties=species:S:1:pos:R:3:forces:R:3:charge:R:1 0=T 1=T energy=-195.25931632411164 free_energy=-195.25931632411164 dipole="-0.4671407721981942 -0.134281849071332 -2.786419125074398e-06" pbc="F F F"
C        0.91744768       0.17414219       0.00000565      -0.01020841       0.01319695      -0.00000018       0.18356526
O        2.06310221       0.50304201       0.00001249       0.01383688       0.01052756       0.00000003      -0.26788737
H        0.08649470       0.90008796      -0.00000684       0.00702070      -0.00251352       0.00000007       0.04205607
H        0.59972052      -0.88139703       0.00001129      -0.01064917      -0.02121099       0.00000008       0.04226604
4
Properties=species:S:1:pos:R:3:forces:R:3:charge:R:1 0=T 1=T energy=-195.25932063340144 free_energy=-195.25932063340144 dipole="-0.47689370187434876 -0.09466742236339035 -3.5004299345893926e-06" pbc="F F F"
C        0.85561318       0.17144548       0.00000669       0.00905855      -0.00147039       0.00000018       0.18348800
O        2.02497426       0.40362266       0.00001527      -0.00861678       0.00751208      -0.00000019      -0.26795404
H        0.08804948       0.96412781      -0.00000947       0.00836192      -0.00670386       0.00000013       0.04223339
H        0.45150306      -0.85490630       0.00001427      -0.00880369       0.00066217      -0.00000012       0.04223265
4
Properties=species:S:1:pos:R:3:forces:R:3:charge:R:1 0=T 1=T energy=-195.25932596198635 free_energy=-195.25932596198635 dipole="-0.48363645543606393 -0.04958252698813294 -4.480110402557548e-06" pbc="F F F"
C        0.77734182       0.16769784       0.00000802       0.00210463      -0.00477628       0.00000015       0.18353180
O        1.96322443       0.28938003       0.00001901      -0.00235406       0.00694764      -0.00000015      -0.26789710
H        0.08734018       1.02852292      -0.00001264       0.00552172      -0.00172014       0.00000007       0.04219621
H        0.27836961      -0.81605523       0.00001770      -0.00527229      -0.00045122      -0.00000007       0.04216909
4
Properties=species:S:1:pos:R:3:forces:R:3:charge:R:1 0=T 1=T energy=-195.25932967760713 free_energy=-195.25932967760713 dipole="-0.4862307751268174 7.082610316015355e-11 -8.312208061165064e-06" pbc="F F F"
C        0.67551572       0.16260162       0.00000054       0.00764235       0.00000000       0.00017186       0.18351165
O        1.86770707       0.16260162       0.00002706      -0.00917364      -0.00000000      -0.00005752      -0.26791215
H        0.07781541       1.08979820      -0.00001354       0.00076565      -0.00116817      -0.00005714       0.04220025
H        0.07781541      -0.76459496       0.00002495       0.00076564       0.00116817      -0.00005720       0.04220025
