 Entering Gaussian System, Link 0=g16
 Initial command:
 /sw/isaac/applications/gaussian/16C01/rhel8_cascadelake_binary_x86_64_avx2/g16/l1.exe "/lustre/isaac24/scratch/usuresh3/paper/berny_results/ch3o/Gau-1282814.inp" -scrdir="/lustre/isaac24/scratch/usuresh3/paper/berny_results/ch3o/"
 Entering Link 1 = /sw/isaac/applications/gaussian/16C01/rhel8_cascadelake_binary_x86_64_avx2/g16/l1.exe PID=   1282815.
  
 Copyright (c) 1988-2019, Gaussian, Inc.  All Rights Reserved.
  
 This is part of the Gaussian(R) 16 program.  It is based on
 the Gaussian(R) 09 system (copyright 2009, Gaussian, Inc.),
 the Gaussian(R) 03 system (copyright 2003, Gaussian, Inc.),
 the Gaussian(R) 98 system (copyright 1998, Gaussian, Inc.),
 the Gaussian(R) 94 system (copyright 1995, Gaussian, Inc.),
 the Gaussian 92(TM) system (copyright 1992, Gaussian, Inc.),
 the Gaussian 90(TM) system (copyright 1990, Gaussian, Inc.),
 the Gaussian 88(TM) system (copyright 1988, Gaussian, Inc.),
 the Gaussian 86(TM) system (copyright 1986, Carnegie Mellon
 University), and the Gaussian 82(TM) system (copyright 1983,
 Carnegie Mellon University). Gaussian is a federally registered
 trademark of Gaussian, Inc.
  
 This software contains proprietary and confidential information,
 including trade secrets, belonging to Gaussian, Inc.
  
 This software is provided under written license and may be
 used, copied, transmitted, or stored only in accord with that
 written license.
  
 The following legend is applicable only to US Government
 contracts under FAR:
  
                    RESTRICTED RIGHTS LEGEND
  
 Use, reproduction and disclosure by the US Government is
 subject to restrictions as set forth in subparagraphs (a)
 and (c) of the Commercial Computer Software - Restricted
 Rights clause in FAR 52.227-19.
  
 Gaussian, Inc.
 340 Quinnipiac St., Bldg. 40, Wallingford CT 06492
  
  
 ---------------------------------------------------------------
 Warning -- This program may not be used in any manner that
 competes with the business of Gaussian, Inc. or will provide
 assistance to any competitor of Gaussian, Inc.  The licensee
 of this program is prohibited from giving any competitor of
 Gaussian, Inc. access to this program.  By using this program,
 the user acknowledges that Gaussian, Inc. is engaged in the
 business of creating and licensing software in the field of
 computational chemistry and represents and warrants to the
 licensee that it is not a competitor of Gaussian, Inc. and that
 it will not use this program in any manner prohibited above.
 ---------------------------------------------------------------
  

 Cite this work as:
 Gaussian 16, Revision C.01,
 M. J. Frisch, G. W. Trucks, H. B. Schlegel, G. E. Scuseria, 
 M. A. Robb, J. R. Cheeseman, G. Scalmani, V. Barone, 
 G. A. Petersson, H. Nakatsuji, X. Li, M. Caricato, A. V. Marenich, 
 J. Bloino, B. G. Janesko, R. Gomperts, B. Mennucci, H. P. Hratchian, 
 J. V. Ortiz, A. F. Izmaylov, J. L. Sonnenberg, D. Williams-Young, 
 F. Ding, F. Lipparini, F. Egidi, J. Goings, B. Peng, A. Petrone, 
 T. Henderson, D. Ranasinghe, V. G. Zakrzewski, J. Gao, N. Rega, 
 G. Zheng, W. Liang, M. Hada, M. Ehara, K. Toyota, R. Fukuda, 
 J. Hasegawa, M. Ishida, T. Nakajima, Y. Honda, O. Kitao, H. Nakai, 
 T. Vreven, K. Throssell, J. A. Montgomery, Jr., J. E. Peralta, 
 F. Ogliaro, M. J. Bearpark, J. J. Heyd, E. N. Brothers, K. N. Kudin, 
 V. N. Staroverov, T. A. Keith, R. Kobayashi, J. Normand, 
 K. Raghavachari, A. P. Rendell, J. C. Burant, S. S. Iyengar, 
 J. Tomasi, M. Cossi, J. M. Millam, M. Klene, C. Adamo, R. Cammi, 
 J. W. Ochterski, R. L. Martin, K. Morokuma, O. Farkas, 
 J. B. Foresman, and D. J. Fox, Gaussian, Inc., Wallingford CT, 2019.
 
 ******************************************
 Gaussian 16:  ES64L-G16RevC.01  3-Jul-2019
                 9-Jul-2026 
 ******************************************
 %nprocshared=2
 Will use up to    2 processors via shared memory.
 %mem=2GB
 %chk=ch3o.chk
 ----------------------------------------------------------------------
 #p External="/lustre/isaac24/scratch/usuresh3/xtb-gaussian/xtb-g" Opt=
 (TS, CalcFC, NoEigenTest, NoMicro)
 ----------------------------------------------------------------------
 1/5=1,10=4,11=1,18=20,26=1,38=1/1,3;
 2/9=110,12=2,17=6,18=5,40=1/2;
 3/11=9,25=1,30=1,41=9900000,43=2,71=2,140=1/1;
 4/20=17,22=2,24=3,113=1,114=1/2;
 6/7=2,8=2,9=2,10=2/1;
 7/25=1,44=-1/16;
 1/5=1,10=4,11=1,18=20,26=1/3(2);
 2/9=110/2;
 99//99;
 2/9=110/2;
 3/11=9,25=1,30=1,41=9900000,43=2,71=1/1;
 4/16=2,20=17,22=1,24=3,113=1,114=1/2;
 7/44=-1/16;
 1/5=1,11=1,18=20,26=1/3(-4);
 2/9=110/2;
 6/7=2,8=2,9=2,10=2/1;
 99/9=10/99;
 Leave Link    1 at Thu Jul  9 07:41:36 2026, MaxMem=   268435456 cpu:               0.0 elap:               0.0
 (Enter /sw/isaac/applications/gaussian/16C01/rhel8_cascadelake_binary_x86_64_avx2/g16/l101.exe)
 --------------------------------------
 Title: ch3o ts search via xTB-Gaussian
 --------------------------------------
 Symbolic Z-matrix:
 Charge =  0 Multiplicity = 2
 C                    -0.64419  0.         0.03454 
 O                     0.74982   0.0001   -0.08806 
 H                    -1.14784   0.92592  -0.22097 
 H                    -1.14794  -0.92546  -0.22245 
 H                     0.16238  -0.00127   0.94061 
 
 ITRead=  0  0  0  0  0
 MicOpt= -1 -1 -1 -1 -1
 NAtoms=      5 NQM=        5 NQMF=       0 NMMI=      0 NMMIF=      0
                NMic=       0 NMicF=      0.
                    Isotopes and Nuclear Properties:
 (Nuclear quadrupole moments (NQMom) in fm**2, nuclear magnetic moments (NMagM)
  in nuclear magnetons)

  Atom         1           2           3           4           5
 IAtWgt=          12          16           1           1           1
 AtmWgt=  12.0000000  15.9949146   1.0078250   1.0078250   1.0078250
 NucSpn=           0           0           1           1           1
 AtZEff=  -0.0000000  -0.0000000  -0.0000000  -0.0000000  -0.0000000
 NQMom=    0.0000000   0.0000000   0.0000000   0.0000000   0.0000000
 NMagM=    0.0000000   0.0000000   2.7928460   2.7928460   2.7928460
 AtZNuc=   6.0000000   8.0000000   1.0000000   1.0000000   1.0000000
 Leave Link  101 at Thu Jul  9 07:41:36 2026, MaxMem=   268435456 cpu:               0.1 elap:               0.1
 (Enter /sw/isaac/applications/gaussian/16C01/rhel8_cascadelake_binary_x86_64_avx2/g16/l103.exe)

 GradGradGradGradGradGradGradGradGradGradGradGradGradGradGradGradGradGrad
 Berny optimization.
 Initialization pass.
                           ----------------------------
                           !    Initial Parameters    !
                           ! (Angstroms and Degrees)  !
 --------------------------                            --------------------------
 ! Name  Definition              Value          Derivative Info.                !
 --------------------------------------------------------------------------------
 ! R1    R(1,2)                  1.3994         calculate D2E/DX2 analytically  !
 ! R2    R(1,3)                  1.0846         calculate D2E/DX2 analytically  !
 ! R3    R(1,4)                  1.0846         calculate D2E/DX2 analytically  !
 ! R4    R(1,5)                  1.2131         calculate D2E/DX2 analytically  !
 ! A1    A(2,1,3)              116.2241         calculate D2E/DX2 analytically  !
 ! A2    A(2,1,4)              116.2312         calculate D2E/DX2 analytically  !
 ! A3    A(2,1,5)               53.3511         calculate D2E/DX2 analytically  !
 ! A4    A(3,1,4)              117.1916         calculate D2E/DX2 analytically  !
 ! A5    A(3,1,5)              119.0536         calculate D2E/DX2 analytically  !
 ! A6    A(4,1,5)              119.0078         calculate D2E/DX2 analytically  !
 ! D1    D(2,1,4,3)           -143.8002         calculate D2E/DX2 analytically  !
 ! D2    D(2,1,5,3)            102.5174         calculate D2E/DX2 analytically  !
 ! D3    D(2,1,5,4)           -102.5559         calculate D2E/DX2 analytically  !
 ! D4    D(3,1,5,4)            154.9267         calculate D2E/DX2 analytically  !
 --------------------------------------------------------------------------------
 Trust Radius=3.00D-01 FncErr=1.00D-07 GrdErr=1.00D-07 EigMax=2.50D+02 EigMin=1.00D-04
 Number of steps in this run=     24 maximum allowed number of steps=    100.
 Search for a saddle point of order  1.
 GradGradGradGradGradGradGradGradGradGradGradGradGradGradGradGradGradGrad

 Leave Link  103 at Thu Jul  9 07:41:36 2026, MaxMem=   268435456 cpu:               0.0 elap:               0.0
 (Enter /sw/isaac/applications/gaussian/16C01/rhel8_cascadelake_binary_x86_64_avx2/g16/l202.exe)
                          Input orientation:                          
 ---------------------------------------------------------------------
 Center     Atomic      Atomic             Coordinates (Angstroms)
 Number     Number       Type             X           Y           Z
 ---------------------------------------------------------------------
      1          6           0       -0.644192   -0.000003    0.034544
      2          8           0        0.749820    0.000104   -0.088057
      3          1           0       -1.147835    0.925918   -0.220969
      4          1           0       -1.147945   -0.925458   -0.222451
      5          1           0        0.162376   -0.001272    0.940611
 ---------------------------------------------------------------------
                    Distance matrix (angstroms):
                    1          2          3          4          5
     1  C    0.000000
     2  O    1.399393   0.000000
     3  H    1.084561   2.115630   0.000000
     4  H    1.084565   2.115712   1.851377   0.000000
     5  H    1.213059   1.184589   1.981313   1.980852   0.000000
 Stoichiometry    CH3O(2)
 Framework group  C1[X(CH3O)]
 Deg. of freedom     9
 Full point group                 C1      NOp   1
 Largest Abelian subgroup         C1      NOp   1
 Largest concise Abelian subgroup C1      NOp   1
                         Standard orientation:                         
 ---------------------------------------------------------------------
 Center     Atomic      Atomic             Coordinates (Angstroms)
 Number     Number       Type             X           Y           Z
 ---------------------------------------------------------------------
      1          6           0       -0.644192   -0.000003    0.034544
      2          8           0        0.749820    0.000104   -0.088057
      3          1           0       -1.147835    0.925918   -0.220969
      4          1           0       -1.147946   -0.925458   -0.222451
      5          1           0        0.162376   -0.001272    0.940611
 ---------------------------------------------------------------------
 Rotational constants (GHZ):         179.0013236          28.6618576          27.6714544
 Leave Link  202 at Thu Jul  9 07:41:36 2026, MaxMem=   268435456 cpu:               0.0 elap:               0.0
 (Enter /sw/isaac/applications/gaussian/16C01/rhel8_cascadelake_binary_x86_64_avx2/g16/l301.exe)
 Standard basis: STO-3G (5D, 7F)
 Ernie: Thresh=  0.10000D-02 Tol=  0.10000D-05 Strict=F.
 There are    13 symmetry adapted cartesian basis functions of A   symmetry.
 There are    13 symmetry adapted basis functions of A   symmetry.
    13 basis functions,    39 primitive gaussians,    13 cartesian basis functions
     9 alpha electrons        8 beta electrons
       nuclear repulsion energy        35.0192689917 Hartrees.
 IExCor=    0 DFT=F Ex=HF Corr=None ExCW=0 ScaHFX=  1.000000
 ScaDFX=  1.000000  1.000000  1.000000  1.000000 ScalE2=  1.000000  1.000000
 IRadAn=      5 IRanWt=     -1 IRanGd=            0 ICorTp=0 IEmpDi=  4
 NAtoms=    5 NActive=    5 NUniq=    5 SFac= 1.00D+00 NAtFMM=   60 NAOKFM=F Big=F
 Integral buffers will be    131072 words long.
 Raffenetti 2 integral format.
 Two-electron integral symmetry is turned on.
 Leave Link  301 at Thu Jul  9 07:41:36 2026, MaxMem=   268435456 cpu:               0.0 elap:               0.0
 (Enter /sw/isaac/applications/gaussian/16C01/rhel8_cascadelake_binary_x86_64_avx2/g16/l402.exe)
 External calculation of energy, first and second derivatives.
 Running external command "/lustre/isaac24/scratch/usuresh3/xtb-gaussian/xtb-g R"
         input file       "/lustre/isaac24/scratch/usuresh3/paper/berny_results/ch3o/Gau-1282815.EIn"
         output file      "/lustre/isaac24/scratch/usuresh3/paper/berny_results/ch3o/Gau-1282815.EOu"
         message file     "/lustre/isaac24/scratch/usuresh3/paper/berny_results/ch3o/Gau-1282815.EMs"
         fchk file        "/lustre/isaac24/scratch/usuresh3/paper/berny_results/ch3o/Gau-1282815.EFC"
         mat. el file     "/lustre/isaac24/scratch/usuresh3/paper/berny_results/ch3o/Gau-1282815.EUF"

 ExternalExternalExternalExternalExternalExternalExternalExternalExternalExternal
 Output from external command:
 "/lustre/isaac24/scratch/usuresh3/xtb-gaussian/xtb-g R /lustre/isaac24/scratch/usuresh3/paper/berny_results/ch3o/Gau-1282815.EIn /lustre/isaac24/scratch/usuresh3/paper/berny_results/ch3o/Gau-1282815.EOu /lustre/isaac24/scratch/usuresh3/paper/berny_results/ch3o/Gau-1282815.EMs /lustre/isaac24/scratch/usuresh3/paper/berny_results/ch3o/Gau-1282815.EFC /lustre/isaac24/scratch/usuresh3/paper/berny_results/ch3o/Gau-1282815.EUF"
 Note: The following floating-point exceptions are signalling: IEEE_DENORMAL
 normal termination of xtb
  
 ------- xtb command was ---------
 ?> xtb ./Gau-1282815.EIn  --hess --charge 0  >/dev/null 2>Gau-1282815.EMs
 ---------------------------------
 WARNING: Gaussian multiplicity S=2 is not singlet.
          This is not not explicitly supported. Results are likely wrong without
          an appropriate --uhf argument xtb command line!
              Control returned to Gaussian.
 ~~~~~~~~~~~~~~~~~~~~~~~~~~~~~~~~~~~~~~~~~~~~~~~~~~~~~~~~~~~~~~~~~~~~~~~~~
 ExternalExternalExternalExternalExternalExternalExternalExternalExternalExternal

 Recovered energy= -7.57381938560     dipole=     -0.893683473824     -0.000932286059      0.656303639259
 Energy=    -7.57381939     NIter=   0.
 Dipole moment=      -0.893683      -0.000932       0.656304
 Leave Link  402 at Thu Jul  9 07:41:37 2026, MaxMem=   268435456 cpu:               0.1 elap:               0.2
 (Enter /sw/isaac/applications/gaussian/16C01/rhel8_cascadelake_binary_x86_64_avx2/g16/l601.exe)
 Leave Link  601 at Thu Jul  9 07:41:37 2026, MaxMem=   268435456 cpu:               0.0 elap:               0.0
 (Enter /sw/isaac/applications/gaussian/16C01/rhel8_cascadelake_binary_x86_64_avx2/g16/l716.exe)
 Dipole        =-8.93683474D-01-9.32286059D-04 6.56303639D-01
 ***** Axes restored to original set *****
 -------------------------------------------------------------------
 Center     Atomic                   Forces (Hartrees/Bohr)
 Number     Number              X              Y              Z
 -------------------------------------------------------------------
      1        6          -0.000078639    0.000000651    0.000057639
      2        8           0.000017865   -0.000011563    0.000002916
      3        1           0.000040553    0.000012350    0.000008105
      4        1           0.000045955   -0.000014159   -0.000006315
      5        1          -0.000025734    0.000012722   -0.000062345
 -------------------------------------------------------------------
 Cartesian Forces:  Max     0.000078639 RMS     0.000035491
 Force constants in Cartesian coordinates: 
                1             2             3             4             5 
      1  0.458667D+00
      2 -0.184983D-05  0.508442D+00
      3  0.161586D-01  0.285339D-03  0.138201D+00
      4 -0.361434D+00  0.221750D-04  0.184588D-01  0.399919D+00
      5 -0.160674D-03 -0.442978D-01 -0.112375D-03  0.109672D-04  0.394609D-01
      6  0.138456D+00 -0.150767D-03  0.588948D-01 -0.155371D-01  0.933173D-04
      7 -0.792447D-01  0.890227D-01 -0.284553D-01 -0.321734D-01  0.248087D-01
      8  0.864085D-01 -0.229411D+00  0.496627D-01  0.103369D-01  0.496174D-02
      9 -0.274665D-01  0.635551D-01 -0.417318D-01 -0.568746D-02 -0.647554D-02
     10 -0.792681D-01 -0.889879D-01 -0.286044D-01 -0.321606D-01 -0.247912D-01
     11 -0.863726D-01 -0.229196D+00 -0.499589D-01 -0.103294D-01  0.495716D-02
     12 -0.276022D-01 -0.638459D-01 -0.418879D-01 -0.567678D-02  0.647103D-02
     13  0.612797D-01 -0.551523D-04  0.224423D-01  0.258495D-01  0.132167D-03
     14  0.126685D-03 -0.553693D-02  0.123216D-03 -0.406696D-04 -0.508202D-02
     15 -0.995462D-01  0.156277D-03 -0.113476D+00  0.844255D-02  0.235635D-04
                6             7             8             9            10 
      6 -0.521806D-01
      7 -0.560824D-02  0.107938D+00
      8  0.214334D-03 -0.107477D+00  0.249265D+00
      9  0.696408D-02  0.332343D-01 -0.570567D-01  0.310086D-01
     10 -0.565185D-02  0.558996D-02  0.852597D-02  0.237539D-02  0.107962D+00
     11 -0.215646D-03 -0.853282D-02 -0.238337D-01 -0.678152D-02  0.107438D+00
     12  0.694447D-02  0.236308D-02  0.673403D-02  0.591678D-02  0.334215D-01
     13 -0.111659D+00 -0.211025D-02  0.220578D-02 -0.245578D-02 -0.212305D-02
     14  0.587617D-04  0.217856D-02 -0.981321D-03  0.675871D-02 -0.218486D-02
     15 -0.206228D-01 -0.153382D-02  0.445647D-03 -0.215764D-02 -0.154067D-02
               11            12            13            14            15 
     11  0.249044D+00
     12  0.574008D-01  0.311982D-01
     13 -0.220308D-02 -0.250566D-02 -0.828959D-01
     14 -0.971492D-03 -0.675997D-02 -0.797176D-04  0.125718D-01
     15 -0.444771D-03 -0.217158D-02  0.941781D-01 -0.180717D-03  0.138428D+00
 FormGI is forming the generalized inverse of G from B-inverse, IUseBI=4.
 Force constants in internal coordinates: 
                1             2             3             4             5 
      1  0.399161D+00
      2  0.249081D-01  0.322119D+00
      3  0.248991D-01  0.992893D-02  0.322110D+00
      4  0.312567D-01  0.348743D-02  0.349893D-02  0.134127D+00
      5  0.143903D-01  0.236770D-02 -0.654167D-02 -0.210540D-01  0.159878D-01
      6  0.173870D-01 -0.586805D-02  0.378536D-02 -0.336115D-01 -0.137713D-01
      7 -0.343414D-01 -0.242916D-02 -0.355646D-02  0.131259D+00  0.201047D-01
      8 -0.231707D-01  0.756406D-02  0.808523D-02  0.914282D-02 -0.132439D-01
      9  0.124979D-01  0.148794D-02 -0.101786D-01 -0.122105D-01  0.140905D-01
     10  0.142500D-01 -0.914663D-02  0.171465D-02 -0.197311D-01 -0.480569D-02
     11 -0.186287D-01 -0.707253D-02 -0.580892D-02  0.779006D-01  0.111610D-01
     12 -0.299897D-02  0.117063D-02 -0.350559D-02  0.332280D-01  0.200667D-01
     13  0.147374D-03  0.282089D-02 -0.243164D-02 -0.213953D-01  0.687779D-02
     14  0.314635D-02  0.165026D-02  0.107395D-02 -0.546233D-01 -0.131889D-01
                6             7             8             9            10 
      6  0.133308D-01
      7  0.279652D-01 -0.129198D+00
      8 -0.910442D-02 -0.714352D-02  0.355612D-01
      9 -0.789404D-02  0.141091D-01 -0.181146D-01  0.238069D-01
     10  0.952548D-02  0.186340D-01 -0.155907D-01 -0.752433D-02  0.191533D-01
     11  0.196318D-01 -0.704522D-01 -0.153694D-01  0.131860D-01  0.184008D-01
     12 -0.170613D-02 -0.348520D-01 -0.866641D-02  0.895281D-02  0.603582D-02
     13 -0.226282D-01  0.272604D-01  0.484064D-02 -0.143928D-03 -0.774004D-02
     14 -0.209221D-01  0.621125D-01  0.135071D-01 -0.909674D-02 -0.137759D-01
               11            12            13            14 
     11 -0.279299D-01
     12 -0.222541D-01  0.649661D-02
     13  0.143883D-01  0.201133D-01  0.137245D-01
     14  0.366424D-01  0.136167D-01 -0.638878D-02 -0.200055D-01
 Leave Link  716 at Thu Jul  9 07:41:37 2026, MaxMem=   268435456 cpu:               0.0 elap:               0.0
 (Enter /sw/isaac/applications/gaussian/16C01/rhel8_cascadelake_binary_x86_64_avx2/g16/l103.exe)

 GradGradGradGradGradGradGradGradGradGradGradGradGradGradGradGradGradGrad
 Berny optimization.
 Red2BG is reusing G-inverse.
 Internal  Forces:  Max     0.000063670 RMS     0.000024511
 Search for a saddle point.
 Step number   1 out of a maximum of   24
 All quantities printed in internal units (Hartrees-Bohrs-Radians)
 Swapping is turned off.
 Second derivative matrix not updated -- analytic derivatives used.
 The second derivative matrix:
                          R1        R2        R3        R4        A1
           R1           0.39916
           R2           0.02491   0.32212
           R3           0.02490   0.00993   0.32211
           R4           0.03126   0.00349   0.00350   0.13413
           A1           0.01439   0.00237  -0.00654  -0.02105   0.01599
           A2           0.01739  -0.00587   0.00379  -0.03361  -0.01377
           A3          -0.03434  -0.00243  -0.00356   0.13126   0.02010
           A4          -0.02317   0.00756   0.00809   0.00914  -0.01324
           A5           0.01250   0.00149  -0.01018  -0.01221   0.01409
           A6           0.01425  -0.00915   0.00171  -0.01973  -0.00481
           D1          -0.01863  -0.00707  -0.00581   0.07790   0.01116
           D2          -0.00300   0.00117  -0.00351   0.03323   0.02007
           D3           0.00015   0.00282  -0.00243  -0.02140   0.00688
           D4           0.00315   0.00165   0.00107  -0.05462  -0.01319
                          A2        A3        A4        A5        A6
           A2           0.01333
           A3           0.02797  -0.12920
           A4          -0.00910  -0.00714   0.03556
           A5          -0.00789   0.01411  -0.01811   0.02381
           A6           0.00953   0.01863  -0.01559  -0.00752   0.01915
           D1           0.01963  -0.07045  -0.01537   0.01319   0.01840
           D2          -0.00171  -0.03485  -0.00867   0.00895   0.00604
           D3          -0.02263   0.02726   0.00484  -0.00014  -0.00774
           D4          -0.02092   0.06211   0.01351  -0.00910  -0.01378
                          D1        D2        D3        D4
           D1          -0.02793
           D2          -0.02225   0.00650
           D3           0.01439   0.02011   0.01372
           D4           0.03664   0.01362  -0.00639  -0.02001
 ITU=  0
     Eigenvalues ---   -0.29983   0.01673   0.02434   0.06225   0.06784
     Eigenvalues ---    0.20374   0.31313   0.31993   0.42031
 Eigenvectors required to have negative eigenvalues:
                          A3        D1        R4        D4        D2
   1                    0.69951   0.38928  -0.37412  -0.31985   0.18449
                          A2        D3        A1        A6        A5
   1                   -0.16349  -0.13536  -0.11195  -0.10649  -0.07617
 RFO step:  Lambda0=2.628361695D-10 Lambda=-1.14306759D-07.
 Linear search not attempted -- option 19 set.
 Iteration  1 RMS(Cart)=  0.00030227 RMS(Int)=  0.00000013
 Iteration  2 RMS(Cart)=  0.00000011 RMS(Int)=  0.00000007
 ITry= 1 IFail=0 DXMaxC= 5.12D-04 DCOld= 1.00D+10 DXMaxT= 3.00D-01 DXLimC= 3.00D+00 Rises=F
 Variable       Old X    -DE/DX   Delta X   Delta X   Delta X     New X
                                 (Linear)    (Quad)   (Total)
    R1        2.64447   0.00002   0.00000   0.00016   0.00016   2.64462
    R2        2.04952  -0.00001   0.00000  -0.00005  -0.00005   2.04948
    R3        2.04953  -0.00001   0.00000  -0.00005  -0.00005   2.04948
    R4        2.29235  -0.00006   0.00000  -0.00036  -0.00036   2.29199
    A1        2.02849  -0.00001   0.00000  -0.00035  -0.00035   2.02815
    A2        2.02862  -0.00002   0.00000  -0.00047  -0.00047   2.02815
    A3        0.93115  -0.00001   0.00000  -0.00009  -0.00009   0.93106
    A4        2.04538   0.00004   0.00000   0.00055   0.00055   2.04593
    A5        2.07788  -0.00002   0.00000  -0.00050  -0.00050   2.07738
    A6        2.07708  -0.00001   0.00000   0.00030   0.00030   2.07738
    D1       -2.50979  -0.00001   0.00000   0.00055   0.00055  -2.50924
    D2        1.78927  -0.00000   0.00000  -0.00017  -0.00017   1.78909
    D3       -1.78994   0.00002   0.00000   0.00085   0.00085  -1.78909
    D4        2.70398   0.00003   0.00000   0.00102   0.00102   2.70500
         Item               Value     Threshold  Converged?
 Maximum Force            0.000064     0.000450     YES
 RMS     Force            0.000025     0.000300     YES
 Maximum Displacement     0.000512     0.001800     YES
 RMS     Displacement     0.000302     0.001200     YES
 Predicted change in Energy=-5.702196D-08
 Optimization completed.
    -- Stationary point found.
                           ----------------------------
                           !   Optimized Parameters   !
                           ! (Angstroms and Degrees)  !
 --------------------------                            --------------------------
 ! Name  Definition              Value          Derivative Info.                !
 --------------------------------------------------------------------------------
 ! R1    R(1,2)                  1.3994         -DE/DX =    0.0                 !
 ! R2    R(1,3)                  1.0846         -DE/DX =    0.0                 !
 ! R3    R(1,4)                  1.0846         -DE/DX =    0.0                 !
 ! R4    R(1,5)                  1.2131         -DE/DX =   -0.0001              !
 ! A1    A(2,1,3)              116.2241         -DE/DX =    0.0                 !
 ! A2    A(2,1,4)              116.2312         -DE/DX =    0.0                 !
 ! A3    A(2,1,5)               53.3511         -DE/DX =    0.0                 !
 ! A4    A(3,1,4)              117.1916         -DE/DX =    0.0                 !
 ! A5    A(3,1,5)              119.0536         -DE/DX =    0.0                 !
 ! A6    A(4,1,5)              119.0078         -DE/DX =    0.0                 !
 ! D1    D(2,1,4,3)           -143.8002         -DE/DX =    0.0                 !
 ! D2    D(2,1,5,3)            102.5174         -DE/DX =    0.0                 !
 ! D3    D(2,1,5,4)           -102.5559         -DE/DX =    0.0                 !
 ! D4    D(3,1,5,4)            154.9267         -DE/DX =    0.0                 !
 --------------------------------------------------------------------------------
 Largest change from initial coordinates is atom    3       0.000 Angstoms.
 GradGradGradGradGradGradGradGradGradGradGradGradGradGradGradGradGradGrad

 Leave Link  103 at Thu Jul  9 07:41:37 2026, MaxMem=   268435456 cpu:               0.0 elap:               0.0
 (Enter /sw/isaac/applications/gaussian/16C01/rhel8_cascadelake_binary_x86_64_avx2/g16/l202.exe)
                          Input orientation:                          
 ---------------------------------------------------------------------
 Center     Atomic      Atomic             Coordinates (Angstroms)
 Number     Number       Type             X           Y           Z
 ---------------------------------------------------------------------
      1          6           0       -0.644192   -0.000003    0.034544
      2          8           0        0.749820    0.000104   -0.088057
      3          1           0       -1.147835    0.925918   -0.220969
      4          1           0       -1.147945   -0.925458   -0.222451
      5          1           0        0.162376   -0.001272    0.940611
 ---------------------------------------------------------------------
                    Distance matrix (angstroms):
                    1          2          3          4          5
     1  C    0.000000
     2  O    1.399393   0.000000
     3  H    1.084561   2.115630   0.000000
     4  H    1.084565   2.115712   1.851377   0.000000
     5  H    1.213059   1.184589   1.981313   1.980852   0.000000
 Stoichiometry    CH3O(2)
 Framework group  C1[X(CH3O)]
 Deg. of freedom     9
 Full point group                 C1      NOp   1
 RotChk:  IX=0 Diff= 3.79D-17
 Largest Abelian subgroup         C1      NOp   1
 Largest concise Abelian subgroup C1      NOp   1
                         Standard orientation:                         
 ---------------------------------------------------------------------
 Center     Atomic      Atomic             Coordinates (Angstroms)
 Number     Number       Type             X           Y           Z
 ---------------------------------------------------------------------
      1          6           0       -0.644192   -0.000003    0.034544
      2          8           0        0.749820    0.000104   -0.088057
      3          1           0       -1.147835    0.925918   -0.220969
      4          1           0       -1.147946   -0.925458   -0.222451
      5          1           0        0.162376   -0.001272    0.940611
 ---------------------------------------------------------------------
 Rotational constants (GHZ):         179.0013236          28.6618576          27.6714544
 Leave Link  202 at Thu Jul  9 07:41:37 2026, MaxMem=   268435456 cpu:               0.0 elap:               0.0
 (Enter /sw/isaac/applications/gaussian/16C01/rhel8_cascadelake_binary_x86_64_avx2/g16/l9999.exe)
 Unable to Open any file for archive entry.
 1\1\GINC-GEN1443\FTS\External='/lustre/isaac24/scratch/usuresh3/xtb-ga
 ussian/xtb-g'\ZDO\C1H3O1(2)\USURESH3\09-Jul-2026\0\\#p External="/lust
 re/isaac24/scratch/usuresh3/xtb-gaussian/xtb-g" Opt=(TS, CalcFC, NoEig
 enTest, NoMicro)\\Title: ch3o ts search via xTB-Gaussian\\0,2\C,-0.644
 192,-0.000003,0.034544\O,0.74982,0.000104,-0.088057\H,-1.147835,0.9259
 18,-0.220969\H,-1.147945,-0.925458,-0.222451\H,0.162376,-0.001272,0.94
 0611\\Version=ES64L-G16RevC.01\HF=-7.5738194\S2=0.\S2-1=0.\S2A=0.\RMSD
 =0.000e+00\RMSF=3.549e-05\Dipole=-0.8936835,-0.0009326,0.6563036\PG=C0
 1 [X(C1H3O1)]\\@
 The archive entry for this job was punched.


 IT IS A CAPITAL MISTAKE TO THEORIZE BEFORE ONE HAS
 DATA.  INSENSIBLY ONE BEGINS TO TWIST FACTS TO SUIT
 THEORIES RATHER THAN THEORIES TO SUIT FACTS.

                                         -- SHERLOCK HOLMES
 Job cpu time:       0 days  0 hours  0 minutes  0.5 seconds.
 Elapsed time:       0 days  0 hours  0 minutes  0.4 seconds.
 File lengths (MBytes):  RWF=      6 Int=      0 D2E=      0 Chk=      1 Scr=      1
 Normal termination of Gaussian 16 at Thu Jul  9 07:41:37 2026.
