 Entering Gaussian System
 *********************************************
 Gaussian 98:
 frequency output generated by the xtb code
 *********************************************
                         Standard orientation:
 --------------------------------------------------------------------
  Center     Atomic     Atomic              Coordinates (Angstroms)
  Number     Number      Type              X           Y           Z
 --------------------------------------------------------------------
    1          6             0       -0.644192    0.000001    0.034546
    2          8             0        0.749820    0.000100   -0.088060
    3          1             0       -1.147831    0.925924   -0.220967
    4          1             0       -1.147951   -0.925452   -0.222445
    5          1             0        0.162379   -0.001271    0.940611
 --------------------------------------------------------------------
     1 basis functions        1 primitive gaussians
     1 alpha electrons        1 beta electrons

 Harmonic frequencies (cm**-1), IR intensities (km*mol⁻¹),
 Raman scattering activities (A**4/amu), Raman depolarization ratios,
 reduced masses (AMU), force constants (mDyne/A) and normal coordinates:
                      1                      2                      3
                        a                      a                      a 
 Frequencies -- -1848.2107               715.8147               869.3787
 Red. masses --     2.1976                 1.4254                 3.5795
 Frc consts  --     0.0000                 0.0000                 0.0000
 IR Inten    --   295.4205               113.7134                40.9106
 Raman Activ --     0.0000                 0.0000                 0.0000
 Depolar     --     0.0000                 0.0000                 0.0000
 Atom AN      X      Y      Z        X      Y      Z        X      Y      Z
   1   6     0.18  -0.00   0.13     0.00   0.15   0.00    -0.01  -0.00   0.45
   2   8     0.06   0.00  -0.20    -0.00   0.11   0.00    -0.12  -0.00  -0.10
   3   1     0.01  -0.01   0.01     0.01  -0.07  -0.40     0.20  -0.06  -0.58
   4   1     0.01   0.01   0.01    -0.01  -0.07   0.40     0.20   0.06  -0.58
   5   1    -0.89  -0.00   0.34    -0.00  -0.80  -0.00     0.09   0.00   0.04
                      4                      5                      6
                        a                      a                      a 
 Frequencies --  1070.0955              1188.7161              1386.4748
 Red. masses --     3.4501                13.0240                 2.0346
 Frc consts  --     0.0000                 0.0000                 0.0000
 IR Inten    --     4.9264                74.5199                 3.5958
 Raman Activ --     0.0000                 0.0000                 0.0000
 Depolar     --     0.0000                 0.0000                 0.0000
 Atom AN      X      Y      Z        X      Y      Z        X      Y      Z
   1   6    -0.00  -0.39  -0.00    -0.67   0.00   0.14    -0.30   0.00  -0.04
   2   8     0.00   0.23   0.00     0.68   0.00  -0.06    -0.00   0.00  -0.03
   3   1     0.59   0.20  -0.10    -0.15  -0.02  -0.07     0.55   0.35   0.14
   4   1    -0.59   0.20   0.10    -0.15   0.02  -0.07     0.55  -0.35   0.14
   5   1     0.00   0.04   0.00    -0.10  -0.00  -0.10    -0.06  -0.00  -0.03
                      7                      8                      9
                        a                      a                      a 
 Frequencies --  2187.8978              2997.5102              3017.7466
 Red. masses --     1.6645                 1.3510                 2.1362
 Frc consts  --     0.0000                 0.0000                 0.0000
 IR Inten    --    20.7005                20.9900                36.5938
 Raman Activ --     0.0000                 0.0000                 0.0000
 Depolar     --     0.0000                 0.0000                 0.0000
 Atom AN      X      Y      Z        X      Y      Z        X      Y      Z
   1   6    -0.14   0.00  -0.16     0.16   0.00   0.08    -0.00   0.32   0.00
   2   8     0.05   0.00  -0.09     0.01  -0.00   0.01    -0.00   0.00  -0.00
   3   1    -0.01   0.03  -0.01    -0.30   0.61  -0.14     0.32  -0.57   0.16
   4   1    -0.01  -0.03  -0.01    -0.30  -0.61  -0.14    -0.32  -0.56  -0.16
   5   1     0.32  -0.00   0.92     0.01   0.00  -0.02     0.00   0.01   0.00
