4
Properties=species:S:1:pos:R:3:forces:R:3:charge:R:1 0=T 1=T energy=-141.68348237722978 free_energy=-141.68348237722978 dipole="-7.026280695910433e-06 9.859798651925953e-06 1.7497530370708803e-06" pbc="F F F"
H        9.20596078      10.28612168       8.05295502      -0.00002469      -0.00037698      -0.00096043       0.07950985
H        9.40049829      10.84182702      11.29305679       0.00016261       0.00021489       0.00105019       0.07950993
C        9.26797524      10.46313720       9.08575033       0.00024271       0.00104971       0.00361299      -0.07951074
C        9.33853826      10.66474128      10.26027208      -0.00038063      -0.00088762      -0.00370275      -0.07950904
4
Properties=species:S:1:pos:R:3:forces:R:3:charge:R:1 0=T 1=T energy=-141.68347765961144 free_energy=-141.68347765961144 dipole="-3.2746796607000736e-05 2.5028807036400695e-05 5.852139479820835e-06" pbc="F F F"
H        9.26994172      10.31708101       8.14720829       0.00069820       0.00184750       0.01114190       0.07949952
H        9.45959134      10.86373509      11.38991391      -0.00012883      -0.00243378      -0.01196015       0.07949762
C        9.33034866      10.49137410       9.18088346       0.00067671       0.00044237       0.00446395      -0.07949938
C        9.39943347      10.68925964      10.35623197      -0.00124608       0.00014391      -0.00364570      -0.07949775
4
Properties=species:S:1:pos:R:3:forces:R:3:charge:R:1 0=T 1=T energy=-141.68337801632802 free_energy=-141.68337801632802 dipole="-0.0009635791360148437 0.0007123102940558123 -4.395926849791381e-05" pbc="F F F"
H        9.34553052      10.36219047       8.26715352       0.00802903       0.00062799       0.03243373       0.07947589
H        9.53805471      10.88876728      11.51419196       0.01012850      -0.01382446      -0.03051096       0.07947955
C        9.40864213      10.52876356       9.30249677      -0.00091946       0.00102705       0.00082892      -0.07947652
C        9.48221937      10.71684535      10.47932566      -0.01723807       0.01216942      -0.00275169      -0.07947892
4
Properties=species:S:1:pos:R:3:forces:R:3:charge:R:1 0=T 1=T energy=-141.68315202215072 free_energy=-141.68315202215072 dipole="0.0020237382087428903 -0.001455921340213135 5.1731840652613374e-05" pbc="F F F"
H        9.41424943      10.41775413       8.39286213      -0.01227919       0.01006473       0.00630114       0.07951507
H        9.64481412      10.89547043      11.64385744      -0.02638121       0.01532229      -0.01952583       0.07949681
C        9.48412226      10.57255638       9.42892189       0.00359742       0.00240737       0.02413987      -0.07950950
C        9.55965792      10.75159027      10.60703819       0.03506298      -0.02779438      -0.01091517      -0.07950238
4
Properties=species:S:1:pos:R:3:forces:R:3:charge:R:1 0=T 1=T energy=-141.52816509028642 free_energy=-141.52816509028642 dipole="-0.0469576405090134 0.031981734354149534 -0.013287916603443575" pbc="F F F"
H        9.40977215      10.49026691       8.48899648       0.25191370      -0.24502925      -0.30908872       0.07771349
H        9.56508707      10.98548020      11.65792199       0.46754883      -0.21157846       0.68675157       0.08259599
C        9.55152597      10.58385576       9.51878236      -0.10620092       0.03551385      -0.22534901      -0.07753355
C        9.76003344      10.65647850      10.69179741      -0.61326162       0.42109386      -0.15231383      -0.08277593
4
Properties=species:S:1:pos:R:3:forces:R:3:charge:R:1 0=T 1=T energy=-140.6140150364886 free_energy=-140.6140150364886 dipole="-0.15224508505712595 0.09755108201963969 -0.07524271222530224" pbc="F F F"
H        9.31860690      10.57978812       8.59370423       0.46232018      -0.50138273      -0.84311883       0.06732925
H        9.41066855      11.05548756      11.43168209       0.75518034      -0.15879471       2.07110536       0.11233104
C        9.59541766      10.56820613       9.59625389      -0.12011662      -0.05024260      -0.72337782      -0.06674593
C        9.96680965      10.51477945      10.74374612      -1.09738390       0.71042004      -0.50460871      -0.11291437
4
Properties=species:S:1:pos:R:3:forces:R:3:charge:R:1 0=T 1=T energy=-139.44283500838068 free_energy=-139.44283500838068 dipole="-0.3322479990234523 0.2090503827701012 -0.18385966588021851" pbc="F F F"
H        9.25899249      10.64539837       8.70610086       0.26811859      -0.33859134      -0.73999428       0.05169041
H        9.31087081      11.07689253      11.15825427       0.61252137      -0.10075642       1.82546639       0.18572203
C        9.61251001      10.57452689       9.69260809       0.07619631      -0.20745231      -0.78847035      -0.04916135
C       10.11091188      10.42220771      10.81118856      -0.95683627       0.64680007      -0.29700176      -0.18825108
4
Properties=species:S:1:pos:R:3:forces:R:3:charge:R:1 0=T 1=T energy=-139.09131223410643 free_energy=-139.09131223410643 dipole="-0.47068230856785415 0.30068044094481416 -0.23667372278905618" pbc="F F F"
H        9.21758459      10.69753882       8.82133004       0.01229774       0.01525001       0.12600679       0.05188401
H        9.21632854      11.09152735      10.87404516      -0.13658238       0.06003474      -0.21106192       0.22160198
C        9.60067074      10.60658423       9.81673115      -0.03225840       0.04762518       0.12656156      -0.05830316
C       10.25688569      10.32259663      10.85322845       0.15654304      -0.12290993      -0.04150643      -0.21518283
4
Properties=species:S:1:pos:R:3:forces:R:3:charge:R:1 0=T 1=T energy=-139.2503202426386 free_energy=-139.2503202426386 dipole="-0.44258808800349764 0.2771162985921529 -0.25148123824881236" pbc="F F F"
H        9.23830509      10.70210849       8.92082220       0.01749506       0.00571783       0.09446122       0.06842546
H        9.05125753      11.18791919      10.73455482      -0.17252208       0.10055268      -0.13816868       0.16322687
C        9.58759608      10.63986496       9.93344053      -0.01319228       0.02944683       0.10805524      -0.06856935
C       10.42050895      10.19101190      10.78613368       0.16821930      -0.13571734      -0.06434778      -0.16308298
4
Properties=species:S:1:pos:R:3:forces:R:3:charge:R:1 0=T 1=T energy=-139.3225218323017 free_energy=-139.3225218323017 dipole="-0.4695209888434912 0.3020966102368915 -0.2266154627104884" pbc="F F F"
H        9.32456305      10.72377650       9.10489428       0.00093793      -0.00035024      -0.00110108       0.10023810
H        8.96654893      11.29964165      10.77984733      -0.03529769       0.02527509      -0.00600489       0.11274297
C        9.61223360      10.70735928      10.14490962       0.00742519      -0.00308941       0.02078484      -0.07097061
C       10.60139974      10.07891439      10.66658338       0.02693458      -0.02183543      -0.01367888      -0.14201046
4
Properties=species:S:1:pos:R:3:forces:R:3:charge:R:1 0=T 1=T energy=-139.32362151227787 free_energy=-139.32362151227787 dipole="-0.4774748654083633 0.3169452837597764 -0.18961007922659462" pbc="F F F"
H        9.41258366      10.80379579       9.29774688      -0.01169188       0.00771025      -0.00615474       0.10838317
H        9.07165926      11.34001503      10.98720522      -0.00118669       0.00095159      -0.00075193       0.10426285
C        9.71130239      10.76179053      10.33621236       0.00790998      -0.00705612      -0.00389107      -0.07093970
C       10.72864678      10.08393382      10.72584668       0.00496860      -0.00160572       0.01079774      -0.14170632
4
Properties=species:S:1:pos:R:3:forces:R:3:charge:R:1 0=T 1=T energy=-139.3237385901052 free_energy=-139.3237385901052 dipole="-0.47888814654812306 0.3215996417368829 -0.18187719114839979" pbc="F F F"
H        9.49286513      10.87219064       9.44264865       0.00973895      -0.00628816       0.00654984       0.10624517
H        9.17420282      11.36167233      11.14740829       0.01068333      -0.00776710       0.00130949       0.10625710
C        9.80704167      10.79888904      10.47485559      -0.00985067       0.00711894      -0.00386282      -0.07088522
C       10.82303311      10.11669068      10.86073588      -0.01057162       0.00693632      -0.00399652      -0.14161705
