7
Properties=species:S:1:pos:R:3:forces:R:3:charge:R:1 0=T 1=T energy=-281.82033204827076 free_energy=-281.82033204827076 dipole="0.6000459137528731 0.23787265875255081 0.0001213320647113879" pbc="F F F"
H       11.46899539      10.77683042       9.71287266       0.00591489       0.00379660      -0.00724872       0.07386362
H       10.94103082       9.32008523      10.59122618      -0.00092801       0.00225733      -0.00016964       0.07351685
H        9.50316505      12.05096807      10.59174718      -0.00477603       0.00345974      -0.00186075       0.01655853
H       11.46859741      10.77681205      11.46986508       0.00517361       0.00396485       0.00702222       0.07385765
C       10.94384977      10.40677595      10.59124275      -0.00858342      -0.01444779      -0.00133581      -0.13917665
C        9.54801698      10.94277913      10.59085899       0.00619038       0.00417434       0.00539382       0.22024592
O        8.54734703      10.28546237      10.59072322      -0.00299142      -0.00320507      -0.00180111      -0.31886591
7
Properties=species:S:1:pos:R:3:forces:R:3:charge:R:1 0=T 1=T energy=-281.82032951164666 free_energy=-281.82032951164666 dipole="0.6211705573751527 0.17097394906157476 0.03746805577502179" pbc="F F F"
H       10.43469866      10.93736463       8.88104621       0.00137712      -0.00212952      -0.00238772       0.07377226
H        9.74584541       9.41351265       9.49582455       0.00454390       0.00136829       0.00120462       0.07366051
H        8.59895782      12.23858405       9.97592844       0.00170858      -0.00221318       0.00206069       0.01661423
H       10.41391566      10.63187299      10.61104599      -0.00432352      -0.00040445       0.00079887       0.07384408
C        9.86307007      10.47712292       9.68497767       0.00005889       0.00206277      -0.00162167      -0.13910611
C        8.53056922      11.14793995       9.78577128       0.00057366      -0.00003104      -0.00172890       0.22018824
O        7.46783593      10.60701087       9.67806889      -0.00393863       0.00134712       0.00167410      -0.31897321
7
Properties=species:S:1:pos:R:3:forces:R:3:charge:R:1 0=T 1=T energy=-281.82031947959524 free_energy=-281.82031947959524 dipole="0.5645395481028992 -0.21622373283463892 0.2262327510996851" pbc="F F F"
H        9.70655774      10.57426389       8.52134192       0.00069360      -0.00067343      -0.00579249       0.07386504
H        8.22776493       9.59703436       8.33831014       0.00560575      -0.00304217      -0.00144551       0.07369061
H        8.39623377      12.38665599       9.64799189       0.00608144      -0.00160507       0.00449437       0.01665959
H        8.89817580       9.95025258       9.95041796      -0.00554104       0.00382073       0.00348655       0.07375705
C        8.73271903      10.34122525       8.94812052       0.00026013       0.00012645       0.00120959      -0.13911206
C        7.92170087      11.59440174       9.03395665      -0.00255617       0.00126924      -0.00090802       0.22018077
O        6.86055868      11.77527972       8.50963843      -0.00454370       0.00010425      -0.00104449      -0.31904101
7
Properties=species:S:1:pos:R:3:forces:R:3:charge:R:1 0=T 1=T energy=-281.8202284193002 free_energy=-281.8202284193002 dipole="-0.11934527694464644 -0.5084503721219755 0.3788900703842509" pbc="F F F"
H        8.46372586       9.59190575       8.90829472      -0.00408830       0.00930664      -0.00675799       0.07311314
H        7.42387608      10.17665135       7.58284115       0.00477294      -0.00272331       0.00285199       0.07361860
H        8.72231272      11.91978638       9.77406170       0.00569201       0.00445804      -0.00416983       0.01660852
H        6.89002439      10.28176921       9.27815158       0.00136921      -0.00907183      -0.00137144       0.07444981
C        7.74422644      10.35103704       8.60645618      -0.00649380       0.00182964       0.00813163      -0.13909576
C        8.36154166      11.70568504       8.74728232      -0.01139580      -0.00598252      -0.00147525       0.22018722
O        8.47298171      12.51561312       7.87255888       0.01014373       0.00218333       0.00279089      -0.31888153
7
Properties=species:S:1:pos:R:3:forces:R:3:charge:R:1 0=T 1=T energy=-281.8194000541898 free_energy=-281.8194000541898 dipole="-0.3948322504617666 -0.5094787779223868 -0.0057701744683859675" pbc="F F F"
H        6.33436529      10.57960726       8.63877119      -0.00248337       0.00452978      -0.00698471       0.07141657
H        7.54401160       9.79075798       7.63681088      -0.00065051       0.00488416       0.00430956       0.07615139
H        8.51093570      10.66984201       9.81256710       0.00591137      -0.01008571      -0.01328663       0.01658592
H        7.01125670      11.43876943       7.22880870      -0.00075725      -0.01243994      -0.01048337       0.07388073
C        7.22774874      10.75105783       8.04174028       0.00291299       0.00848097       0.01313799      -0.13911393
C        8.31612473      11.29043918       8.91395546      -0.00048465       0.00353760       0.01460094       0.22014879
O        8.94610826      12.28745049       8.70697872      -0.00444858       0.00109315      -0.00129377      -0.31906946
7
Properties=species:S:1:pos:R:3:forces:R:3:charge:R:1 0=T 1=T energy=-281.82031534360516 free_energy=-281.82031534360516 dipole="-0.40128630627919243 -0.2883962153275097 -0.41498305291725424" pbc="F F F"
H        5.94472337      11.41130996       6.82676835      -0.00307061       0.00430061      -0.00764781       0.07395533
H        6.89975689       9.93940816       6.91413842       0.00328121      -0.00090170       0.00414291       0.07368252
H        6.19693610      10.66822316       9.20392930      -0.00507675      -0.00393992       0.00517928       0.01668930
H        7.71534260      11.50143960       6.65029903       0.00066133       0.00067006      -0.00964392       0.07371333
C        6.89633695      11.00010225       7.15839939      -0.00330276       0.00041532       0.00934103      -0.13918099
C        7.01102489      11.16685762       8.63991940       0.00790515       0.00056591      -0.00689479       0.22014202
O        7.87516328      11.76982704       9.20855491      -0.00039757      -0.00111028       0.00552330      -0.31900150
7
Properties=species:S:1:pos:R:3:forces:R:3:charge:R:1 0=T 1=T energy=-281.5718163038329 free_energy=-281.5718163038329 dipole="0.23231536189526122 0.08205766331841557 -0.11872773597506892" pbc="F F F"
H        6.94989859      12.01124706       6.74117742      -0.01103074       0.00350403       0.00447892       0.04015130
H        8.53765603      10.23234578       9.32746504      -0.01285163      -0.00275148       0.00260533       0.29865821
H        5.87324501      10.75378096       8.57543988      -0.01561194       0.00009172      -0.00348816       0.04960453
H        8.59950244      11.55961949       7.40083459      -0.00465723      -0.00216154      -0.00301483       0.03410903
C        7.52625734      11.49998732       7.48697561       0.01314843       0.00706285      -0.00915926      -0.14467155
C        6.94470548      10.82828904       8.46517650       0.02257656      -0.00477560      -0.00560145       0.10309756
O        7.58220006      10.15039239       9.44700616       0.00842654      -0.00096997       0.01417945      -0.38094908
7
Properties=species:S:1:pos:R:3:forces:R:3:charge:R:1 0=T 1=T energy=-281.571828801552 free_energy=-281.571828801552 dipole="-0.04357365648726851 -0.04939177712074402 -0.2657466874147473" pbc="F F F"
H        6.21569181      11.98562163       7.93785830      -0.00012196      -0.00064882      -0.00706900       0.04024429
H        9.00771716       9.84544318       8.16401716      -0.00241615       0.00351428      -0.00245357       0.29850381
H        7.58776899      11.52045493       9.92864518      -0.00169767       0.00790692       0.00639701       0.04945354
H        7.25929580      10.85068716       6.94412489       0.00156324       0.00207380       0.00697165       0.03429087
C        7.04996132      11.31302219       7.89541100       0.01191428      -0.00860077       0.00669195      -0.14474546
C        7.78292250      11.06780141       8.96760530      -0.00456169      -0.00383219       0.00261975       0.10304796
O        8.85205191      10.24128976       9.03141748      -0.00468006      -0.00041322      -0.01315780      -0.38079502
7
Properties=species:S:1:pos:R:3:forces:R:3:charge:R:1 0=T 1=T energy=-281.5718299458868 free_energy=-281.5718299458868 dipole="-0.17179676772658084 -0.16012238171409995 -0.14060440851955341" pbc="F F F"
H        6.52492500      10.52383476       9.74196908       0.00354776      -0.00424064      -0.00431135       0.04021385
H        8.77460521      10.93951588       7.05827344      -0.00977761      -0.00511326       0.00536166       0.29845526
H        8.61053357      11.83375087       9.72607994       0.00256250      -0.00045410      -0.00223562       0.04942813
H        6.80420581      10.04551174       7.99371256       0.00420579      -0.00223671      -0.00021656       0.03429019
C        7.14080051      10.58255352       8.86576835      -0.00148882       0.00944559      -0.00811325      -0.14470045
C        8.25833742      11.28808613       8.86270766       0.00546788       0.00259218       0.00332967       0.10312770
O        9.10706003      11.43331887       7.81906440      -0.00451751       0.00000695       0.00618545      -0.38081469
7
Properties=species:S:1:pos:R:3:forces:R:3:charge:R:1 0=T 1=T energy=-281.57186017168095 free_energy=-281.57186017168095 dipole="0.0036659058854240094 -0.27317845931409007 -0.014256415772851404" pbc="F F F"
H        8.69937514      10.36434178      10.08143803      -0.00227906      -0.00085520       0.00396564       0.04024784
H        7.03529759      10.79583351       7.00943929      -0.00445121      -0.00621501      -0.00062502       0.29863841
H        8.04966956      12.49247311       9.01653620       0.00199346       0.00634130       0.00341209       0.04942631
H        7.97209509       9.43744603       8.67563187       0.00620215      -0.01046907       0.00189856       0.03422922
C        8.18952324      10.38642093       9.13835940      -0.00287332      -0.00274602      -0.00339834      -0.14479877
C        7.84457502      11.52959315       8.57235714       0.00520878       0.00506754       0.00135316       0.10309923
O        7.20408833      11.66786378       7.38906135      -0.00380078       0.00887645      -0.00660609      -0.38084223
7
Properties=species:S:1:pos:R:3:forces:R:3:charge:R:1 0=T 1=T energy=-281.57188151865523 free_energy=-281.57188151865523 dipole="0.09689720341615463 -0.24405500533482608 0.07770922335459225" pbc="F F F"
H       10.36277587      11.10042756       9.45846823      -0.00434807      -0.00065154      -0.00300750       0.04018441
H        7.05246758       9.97932325       9.02742248      -0.00114640       0.00120828       0.00147060       0.29864592
H        8.41668452      12.42704559       8.73107111      -0.00623982      -0.00090335       0.00204525       0.04942189
H        9.30308804       9.60975726       9.58996464      -0.00106542      -0.00003720       0.00151451       0.03420459
C        9.39035669      10.65908171       9.35843965      -0.00101995      -0.00281833       0.00044137      -0.14471901
C        8.35022191      11.37529514       8.96875033       0.00528533       0.00386361      -0.00022773       0.10308984
O        7.08576386      10.92045167       8.81176220       0.00853432      -0.00066147      -0.00223651      -0.38082765
7
Properties=species:S:1:pos:R:3:forces:R:3:charge:R:1 0=T 1=T energy=-281.57186135349036 free_energy=-281.57186135349036 dipole="0.22962105717358858 -0.12959458599133847 0.0719780730921489" pbc="F F F"
H       10.88491625      11.88388650       9.46540787      -0.00601851      -0.00051962       0.00586667       0.04010321
H        8.74845290       9.28983585      10.51675682       0.00515118      -0.00076028       0.00102725       0.29866755
H        8.42166128      11.83079085       9.34324108      -0.00195569       0.00171304       0.00621401       0.04945645
H       10.88640452      10.21423687      10.22359339      -0.00273966       0.00528432       0.00391916       0.03414481
C       10.32436320      11.03996002       9.81754558      -0.00544738      -0.00459463      -0.00985928      -0.14477422
C        9.00449503      11.01701052       9.74938548       0.02793818       0.00063243      -0.01176877       0.10312858
O        8.20629703      10.00519969      10.15975761      -0.01692813      -0.00175525       0.00460096      -0.38072638
