4
Properties=species:S:1:pos:R:3:forces:R:3:charge:R:1 0=T 1=T energy=-193.01517591809363 free_energy=-193.01517591809363 dipole="0.3692920623762191 -0.09845202243557989 8.018729307037716e-17" pbc="F F F"
C        0.59127458       0.07107187      -0.00000000      -0.00950546       0.00424405       0.00000000      -0.08258850
O        1.88750980       0.22245999      -0.00000000       0.00225958      -0.01587437      -0.00000000      -0.25633409
H        0.17558419       1.10517199       0.00000000       0.01459979      -0.00962424       0.00000000       0.03354514
H        2.34394704      -0.64027776       0.00000000      -0.00735390       0.02125456      -0.00000000       0.30537745
4
Properties=species:S:1:pos:R:3:forces:R:3:charge:R:1 0=T 1=T energy=-193.0151927372003 free_energy=-193.0151927372003 dipole="0.3581063406475492 -0.13467157041530814 1.4634841359153085e-06" pbc="F F F"
C        0.46847717       0.13216677      -0.00000068       0.00232927      -0.00257542       0.00000005      -0.08256465
O        1.77344174       0.15250477       0.00000443      -0.00259756       0.01012562       0.00000004      -0.25643318
H        0.16028398       1.20288318      -0.00000229       0.00416064      -0.00366182      -0.00000003       0.03372268
H        2.14234508      -0.75044482       0.00000624      -0.00389235      -0.00388837      -0.00000007       0.30527515
4
Properties=species:S:1:pos:R:3:forces:R:3:charge:R:1 0=T 1=T energy=-193.01504924676559 free_energy=-193.01504924676559 dipole="0.3410456658248647 -0.16901207785670747 2.952026312202942e-06" pbc="F F F"
C        0.37326197       0.19297257      -0.00000164      -0.02743648      -0.00632086      -0.00000015      -0.08265676
O        1.67410803       0.08717098       0.00000862      -0.02906845       0.02178978      -0.00000019      -0.25653802
H        0.16464810       1.28728648      -0.00000520       0.02758055       0.00047571       0.00000016       0.03334108
H        1.94806585      -0.84838074       0.00001243       0.02892438      -0.01594464       0.00000019       0.30585371
4
Properties=species:S:1:pos:R:3:forces:R:3:charge:R:1 0=T 1=T energy=-192.69271241111173 free_energy=-192.69271241111173 dipole="0.2261210453865805 -0.19193013725694769 3.445478440468022e-06" pbc="F F F"
C        0.43674930       0.20163845      -0.00000232      -0.91654812       0.34769633      -0.00000858      -0.09138047
O        1.74667006       0.11239954       0.00001134      -1.06934990      -0.57103105      -0.00000492      -0.27782060
H        0.11934001       1.24710991      -0.00000695       0.16722149       0.73993622      -0.00000298       0.02403720
H        1.70986084      -0.84902587       0.00001465       1.81867653      -0.51660151       0.00001648       0.34516387
4
Properties=species:S:1:pos:R:3:forces:R:3:charge:R:1 0=T 1=T energy=-191.43552506867408 free_energy=-191.43552506867408 dipole="-0.012034638581907047 -0.22600647503554883 2.127407071928291e-06" pbc="F F F"
C        0.56201353       0.15474189      -0.00000143      -1.31324228       0.33719938      -0.00001698      -0.08198387
O        1.89631282       0.19052901       0.00001215      -0.95291435      -1.23744026      -0.00000110      -0.36853811
H        0.09579115       1.14530241      -0.00000654       0.11410992       0.79639543      -0.00000130       0.03237902
H        1.45911807      -0.77842237       0.00001253       2.15204672       0.10384545       0.00001939       0.41814296
4
Properties=species:S:1:pos:R:3:forces:R:3:charge:R:1 0=T 1=T energy=-192.62403392450528 free_energy=-192.62403392450528 dipole="-0.4277106014441945 -0.20805364106106844 -2.7031998826130918e-06" pbc="F F F"
C        0.73348738       0.12564013       0.00000099       3.38857707      -0.58145305       0.00004698       0.06953656
O        1.96866487       0.38599341       0.00001177       1.41653621       3.86622546      -0.00000773      -0.39576682
H        0.09056526       1.06556522      -0.00000655      -0.09297961      -1.56906846       0.00000017       0.08530731
H        1.21985446      -0.86507899       0.00001050      -4.71213367      -1.71570395      -0.00003942       0.24092295
4
Properties=species:S:1:pos:R:3:forces:R:3:charge:R:1 0=T 1=T energy=-194.79842800583535 free_energy=-194.79842800583535 dipole="-0.4747707977243101 -0.1708969276496569 -3.3697718169355497e-06" pbc="F F F"
C        0.90006523       0.15733493       0.00000303       1.61066663       0.31184346       0.00001907       0.15838797
O        2.03862041       0.54465637       0.00001151       0.68630084       1.52523953      -0.00000243      -0.30779346
H        0.09039147       0.93568055      -0.00000622      -0.02651367      -1.25378785       0.00000231       0.06650355
H        0.98189424      -0.92562728       0.00000843      -2.27045380      -0.58329515      -0.00001896       0.08290194
4
Properties=species:S:1:pos:R:3:forces:R:3:charge:R:1 0=T 1=T energy=-195.24361821717412 free_energy=-195.24361821717412 dipole="-0.4527502394031542 -0.18262502381452436 -3.173706352247661e-06" pbc="F F F"
C        0.98712513       0.17558768       0.00000396       0.24783055       0.05206689       0.00000320       0.18037215
O        2.09300271       0.62186008       0.00001176       0.14227497       0.24221110      -0.00000014      -0.27344101
H        0.09382964       0.83024755      -0.00000602       0.02527643      -0.29759538       0.00000091       0.04622718
H        0.84239937      -0.91539774       0.00000696      -0.41538195       0.00331738      -0.00000397       0.04684168
4
Properties=species:S:1:pos:R:3:forces:R:3:charge:R:1 0=T 1=T energy=-195.25930416241704 free_energy=-195.25930416241704 dipole="-0.4587884907990563 -0.16000041756657588 -2.674015684402001e-06" pbc="F F F"
C        0.93720036       0.17453240       0.00000533      -0.02337204       0.01250847      -0.00000047       0.18357523
O        2.06268859       0.56655486       0.00001189       0.03153608      -0.00515348       0.00000035      -0.26789025
H        0.06950236       0.85577118      -0.00000558      -0.01084743      -0.00985910       0.00000004       0.04207930
H        0.67625187      -0.89727793       0.00000961       0.00268339       0.00250411       0.00000007       0.04223572
4
Properties=species:S:1:pos:R:3:forces:R:3:charge:R:1 0=T 1=T energy=-195.2593146359854 free_energy=-195.2593146359854 dipole="-0.4750971006924499 -0.10359549701942536 -3.4138823012634617e-06" pbc="F F F"
C        0.85324401       0.17061976       0.00000676       0.00592108       0.01484983      -0.00000044       0.18349801
O        2.01810761       0.42431253       0.00001513      -0.00212450      -0.01462852       0.00000025      -0.26794542
H        0.07355483       0.95076620      -0.00000878      -0.01086165      -0.00165435       0.00000003       0.04218088
H        0.46489604      -0.86189444       0.00001383       0.00706507       0.00143305       0.00000017       0.04226653
4
Properties=species:S:1:pos:R:3:forces:R:3:charge:R:1 0=T 1=T energy=-195.25932483957794 free_energy=-195.25932483957794 dipole="-0.4836582376591175 -0.04736043064345645 -4.077735957732989e-06" pbc="F F F"
C        0.76600671       0.16669758       0.00000825      -0.01449362       0.00401568      -0.00000067       0.18360005
O        1.95227602       0.28274022       0.00001824       0.01277231      -0.00610514       0.00000038      -0.26781470
H        0.08156643       1.03178182      -0.00001266      -0.00439157       0.00007543       0.00000011       0.04209384
H        0.26031148      -0.81384036       0.00001904       0.00611288       0.00201403       0.00000018       0.04212081
4
Properties=species:S:1:pos:R:3:forces:R:3:charge:R:1 0=T 1=T energy=-195.25932967760713 free_energy=-195.25932967760713 dipole="-0.4862307751268174 7.082610316015355e-11 -8.312208061165064e-06" pbc="F F F"
C        0.67551572       0.16260162       0.00000054       0.00764235       0.00000000       0.00017186       0.18351165
O        1.86770707       0.16260162       0.00002706      -0.00917364      -0.00000000      -0.00005752      -0.26791215
H        0.07781541       1.08979820      -0.00001354       0.00076565      -0.00116817      -0.00005714       0.04220025
H        0.07781541      -0.76459496       0.00002495       0.00076564       0.00116817      -0.00005720       0.04220025
