 Entering Gaussian System, Link 0=g16
 Initial command:
 /sw/isaac/applications/gaussian/16C01/rhel8_cascadelake_binary_x86_64_avx2/g16/l1.exe "/lustre/isaac24/scratch/usuresh3/paper/berny_results/hcho/Gau-1283040.inp" -scrdir="/lustre/isaac24/scratch/usuresh3/paper/berny_results/hcho/"
 Entering Link 1 = /sw/isaac/applications/gaussian/16C01/rhel8_cascadelake_binary_x86_64_avx2/g16/l1.exe PID=   1283041.
  
 Copyright (c) 1988-2019, Gaussian, Inc.  All Rights Reserved.
  
 This is part of the Gaussian(R) 16 program.  It is based on
 the Gaussian(R) 09 system (copyright 2009, Gaussian, Inc.),
 the Gaussian(R) 03 system (copyright 2003, Gaussian, Inc.),
 the Gaussian(R) 98 system (copyright 1998, Gaussian, Inc.),
 the Gaussian(R) 94 system (copyright 1995, Gaussian, Inc.),
 the Gaussian 92(TM) system (copyright 1992, Gaussian, Inc.),
 the Gaussian 90(TM) system (copyright 1990, Gaussian, Inc.),
 the Gaussian 88(TM) system (copyright 1988, Gaussian, Inc.),
 the Gaussian 86(TM) system (copyright 1986, Carnegie Mellon
 University), and the Gaussian 82(TM) system (copyright 1983,
 Carnegie Mellon University). Gaussian is a federally registered
 trademark of Gaussian, Inc.
  
 This software contains proprietary and confidential information,
 including trade secrets, belonging to Gaussian, Inc.
  
 This software is provided under written license and may be
 used, copied, transmitted, or stored only in accord with that
 written license.
  
 The following legend is applicable only to US Government
 contracts under FAR:
  
                    RESTRICTED RIGHTS LEGEND
  
 Use, reproduction and disclosure by the US Government is
 subject to restrictions as set forth in subparagraphs (a)
 and (c) of the Commercial Computer Software - Restricted
 Rights clause in FAR 52.227-19.
  
 Gaussian, Inc.
 340 Quinnipiac St., Bldg. 40, Wallingford CT 06492
  
  
 ---------------------------------------------------------------
 Warning -- This program may not be used in any manner that
 competes with the business of Gaussian, Inc. or will provide
 assistance to any competitor of Gaussian, Inc.  The licensee
 of this program is prohibited from giving any competitor of
 Gaussian, Inc. access to this program.  By using this program,
 the user acknowledges that Gaussian, Inc. is engaged in the
 business of creating and licensing software in the field of
 computational chemistry and represents and warrants to the
 licensee that it is not a competitor of Gaussian, Inc. and that
 it will not use this program in any manner prohibited above.
 ---------------------------------------------------------------
  

 Cite this work as:
 Gaussian 16, Revision C.01,
 M. J. Frisch, G. W. Trucks, H. B. Schlegel, G. E. Scuseria, 
 M. A. Robb, J. R. Cheeseman, G. Scalmani, V. Barone, 
 G. A. Petersson, H. Nakatsuji, X. Li, M. Caricato, A. V. Marenich, 
 J. Bloino, B. G. Janesko, R. Gomperts, B. Mennucci, H. P. Hratchian, 
 J. V. Ortiz, A. F. Izmaylov, J. L. Sonnenberg, D. Williams-Young, 
 F. Ding, F. Lipparini, F. Egidi, J. Goings, B. Peng, A. Petrone, 
 T. Henderson, D. Ranasinghe, V. G. Zakrzewski, J. Gao, N. Rega, 
 G. Zheng, W. Liang, M. Hada, M. Ehara, K. Toyota, R. Fukuda, 
 J. Hasegawa, M. Ishida, T. Nakajima, Y. Honda, O. Kitao, H. Nakai, 
 T. Vreven, K. Throssell, J. A. Montgomery, Jr., J. E. Peralta, 
 F. Ogliaro, M. J. Bearpark, J. J. Heyd, E. N. Brothers, K. N. Kudin, 
 V. N. Staroverov, T. A. Keith, R. Kobayashi, J. Normand, 
 K. Raghavachari, A. P. Rendell, J. C. Burant, S. S. Iyengar, 
 J. Tomasi, M. Cossi, J. M. Millam, M. Klene, C. Adamo, R. Cammi, 
 J. W. Ochterski, R. L. Martin, K. Morokuma, O. Farkas, 
 J. B. Foresman, and D. J. Fox, Gaussian, Inc., Wallingford CT, 2019.
 
 ******************************************
 Gaussian 16:  ES64L-G16RevC.01  3-Jul-2019
                 9-Jul-2026 
 ******************************************
 %nprocshared=2
 Will use up to    2 processors via shared memory.
 %mem=2GB
 %chk=hcho.chk
 ----------------------------------------------------------------------
 #p External="/lustre/isaac24/scratch/usuresh3/xtb-gaussian/xtb-g" Opt=
 (TS, CalcFC, NoEigenTest, NoMicro)
 ----------------------------------------------------------------------
 1/5=1,10=4,11=1,18=20,26=1,38=1/1,3;
 2/9=110,12=2,17=6,18=5,40=1/2;
 3/11=9,25=1,30=1,41=9900000,43=2,71=2,140=1/1;
 4/20=17,22=2,24=3,113=1,114=1/2;
 6/7=2,8=2,9=2,10=2/1;
 7/25=1,44=-1/16;
 1/5=1,10=4,11=1,18=20,26=1/3(2);
 2/9=110/2;
 99//99;
 2/9=110/2;
 3/11=9,25=1,30=1,41=9900000,43=2,71=1/1;
 4/16=2,20=17,22=1,24=3,113=1,114=1/2;
 7/44=-1/16;
 1/5=1,11=1,18=20,26=1/3(-4);
 2/9=110/2;
 6/7=2,8=2,9=2,10=2/1;
 99/9=10/99;
 Leave Link    1 at Thu Jul  9 07:41:41 2026, MaxMem=   268435456 cpu:               0.0 elap:               0.0
 (Enter /sw/isaac/applications/gaussian/16C01/rhel8_cascadelake_binary_x86_64_avx2/g16/l101.exe)
 --------------------------------------
 Title: hcho ts search via xTB-Gaussian
 --------------------------------------
 Symbolic Z-matrix:
 Charge =  0 Multiplicity = 1
 C                     0.66826   0.14402   0. 
 O                    -0.63179  -0.13076  0. 
 H                     1.28577  -0.78239   0. 
 H                    -0.24097   0.9643    0. 
 
 ITRead=  0  0  0  0
 MicOpt= -1 -1 -1 -1
 NAtoms=      4 NQM=        4 NQMF=       0 NMMI=      0 NMMIF=      0
                NMic=       0 NMicF=      0.
                    Isotopes and Nuclear Properties:
 (Nuclear quadrupole moments (NQMom) in fm**2, nuclear magnetic moments (NMagM)
  in nuclear magnetons)

  Atom         1           2           3           4
 IAtWgt=          12          16           1           1
 AtmWgt=  12.0000000  15.9949146   1.0078250   1.0078250
 NucSpn=           0           0           1           1
 AtZEff=  -0.0000000  -0.0000000  -0.0000000  -0.0000000
 NQMom=    0.0000000   0.0000000   0.0000000   0.0000000
 NMagM=    0.0000000   0.0000000   2.7928460   2.7928460
 AtZNuc=   6.0000000   8.0000000   1.0000000   1.0000000
 Leave Link  101 at Thu Jul  9 07:41:41 2026, MaxMem=   268435456 cpu:               0.1 elap:               0.0
 (Enter /sw/isaac/applications/gaussian/16C01/rhel8_cascadelake_binary_x86_64_avx2/g16/l103.exe)

 GradGradGradGradGradGradGradGradGradGradGradGradGradGradGradGradGradGrad
 Berny optimization.
 Initialization pass.
                           ----------------------------
                           !    Initial Parameters    !
                           ! (Angstroms and Degrees)  !
 --------------------------                            --------------------------
 ! Name  Definition              Value          Derivative Info.                !
 --------------------------------------------------------------------------------
 ! R1    R(1,2)                  1.3288         calculate D2E/DX2 analytically  !
 ! R2    R(1,3)                  1.1134         calculate D2E/DX2 analytically  !
 ! R3    R(1,4)                  1.2246         calculate D2E/DX2 analytically  !
 ! A1    A(2,1,3)              111.7518         calculate D2E/DX2 analytically  !
 ! A2    A(2,1,4)               53.99           calculate D2E/DX2 analytically  !
 ! A3    L(3,1,4,2,-1)         165.7419         calculate D2E/DX2 analytically  !
 ! A4    L(3,1,4,2,-2)         180.0            calculate D2E/DX2 analytically  !
 ! D1    D(2,1,4,3)              0.0            calculate D2E/DX2 analytically  !
 --------------------------------------------------------------------------------
 Trust Radius=3.00D-01 FncErr=1.00D-07 GrdErr=1.00D-07 EigMax=2.50D+02 EigMin=1.00D-04
 Number of steps in this run=     20 maximum allowed number of steps=    100.
 Search for a saddle point of order  1.
 GradGradGradGradGradGradGradGradGradGradGradGradGradGradGradGradGradGrad

 Leave Link  103 at Thu Jul  9 07:41:41 2026, MaxMem=   268435456 cpu:               0.0 elap:               0.0
 (Enter /sw/isaac/applications/gaussian/16C01/rhel8_cascadelake_binary_x86_64_avx2/g16/l202.exe)
                          Input orientation:                          
 ---------------------------------------------------------------------
 Center     Atomic      Atomic             Coordinates (Angstroms)
 Number     Number       Type             X           Y           Z
 ---------------------------------------------------------------------
      1          6           0        0.668255    0.144023    0.000002
      2          8           0       -0.631791   -0.130755   -0.000002
      3          1           0        1.285773   -0.782388    0.000002
      4          1           0       -0.240973    0.964296    0.000001
 ---------------------------------------------------------------------
                    Distance matrix (angstroms):
                    1          2          3          4
     1  C    0.000000
     2  O    1.328767   0.000000
     3  H    1.113358   2.025260   0.000000
     4  H    1.224558   1.162702   2.319883   0.000000
 Stoichiometry    CH2O
 Framework group  C1[X(CH2O)]
 Deg. of freedom     6
 Full point group                 C1      NOp   1
 Largest Abelian subgroup         C1      NOp   1
 Largest concise Abelian subgroup C1      NOp   1
                         Standard orientation:                         
 ---------------------------------------------------------------------
 Center     Atomic      Atomic             Coordinates (Angstroms)
 Number     Number       Type             X           Y           Z
 ---------------------------------------------------------------------
      1          6           0        0.668255    0.144023    0.000002
      2          8           0       -0.631791   -0.130755   -0.000002
      3          1           0        1.285773   -0.782388    0.000002
      4          1           0       -0.240973    0.964296    0.000001
 ---------------------------------------------------------------------
 Rotational constants (GHZ):         259.7875689          37.2632513          32.5887990
 Leave Link  202 at Thu Jul  9 07:41:41 2026, MaxMem=   268435456 cpu:               0.0 elap:               0.0
 (Enter /sw/isaac/applications/gaussian/16C01/rhel8_cascadelake_binary_x86_64_avx2/g16/l301.exe)
 Standard basis: STO-3G (5D, 7F)
 Ernie: Thresh=  0.10000D-02 Tol=  0.10000D-05 Strict=F.
 There are    12 symmetry adapted cartesian basis functions of A   symmetry.
 There are    12 symmetry adapted basis functions of A   symmetry.
    12 basis functions,    36 primitive gaussians,    12 cartesian basis functions
     8 alpha electrons        8 beta electrons
       nuclear repulsion energy        30.5198867284 Hartrees.
 IExCor=    0 DFT=F Ex=HF Corr=None ExCW=0 ScaHFX=  1.000000
 ScaDFX=  1.000000  1.000000  1.000000  1.000000 ScalE2=  1.000000  1.000000
 IRadAn=      5 IRanWt=     -1 IRanGd=            0 ICorTp=0 IEmpDi=  4
 NAtoms=    4 NActive=    4 NUniq=    4 SFac= 1.00D+00 NAtFMM=   60 NAOKFM=F Big=F
 Integral buffers will be    131072 words long.
 Raffenetti 1 integral format.
 Two-electron integral symmetry is turned on.
 Leave Link  301 at Thu Jul  9 07:41:41 2026, MaxMem=   268435456 cpu:               0.0 elap:               0.0
 (Enter /sw/isaac/applications/gaussian/16C01/rhel8_cascadelake_binary_x86_64_avx2/g16/l402.exe)
 External calculation of energy, first and second derivatives.
 Running external command "/lustre/isaac24/scratch/usuresh3/xtb-gaussian/xtb-g R"
         input file       "/lustre/isaac24/scratch/usuresh3/paper/berny_results/hcho/Gau-1283041.EIn"
         output file      "/lustre/isaac24/scratch/usuresh3/paper/berny_results/hcho/Gau-1283041.EOu"
         message file     "/lustre/isaac24/scratch/usuresh3/paper/berny_results/hcho/Gau-1283041.EMs"
         fchk file        "/lustre/isaac24/scratch/usuresh3/paper/berny_results/hcho/Gau-1283041.EFC"
         mat. el file     "/lustre/isaac24/scratch/usuresh3/paper/berny_results/hcho/Gau-1283041.EUF"

 ExternalExternalExternalExternalExternalExternalExternalExternalExternalExternal
 Output from external command:
 "/lustre/isaac24/scratch/usuresh3/xtb-gaussian/xtb-g R /lustre/isaac24/scratch/usuresh3/paper/berny_results/hcho/Gau-1283041.EIn /lustre/isaac24/scratch/usuresh3/paper/berny_results/hcho/Gau-1283041.EOu /lustre/isaac24/scratch/usuresh3/paper/berny_results/hcho/Gau-1283041.EMs /lustre/isaac24/scratch/usuresh3/paper/berny_results/hcho/Gau-1283041.EFC /lustre/isaac24/scratch/usuresh3/paper/berny_results/hcho/Gau-1283041.EUF"
 Note: The following floating-point exceptions are signalling: IEEE_DENORMAL
 normal termination of xtb
  
 ------- xtb command was ---------
 ?> xtb ./Gau-1283041.EIn  --hess --charge 0  >/dev/null 2>Gau-1283041.EMs
 ---------------------------------
              Control returned to Gaussian.
 ~~~~~~~~~~~~~~~~~~~~~~~~~~~~~~~~~~~~~~~~~~~~~~~~~~~~~~~~~~~~~~~~~~~~~~~~~
 ExternalExternalExternalExternalExternalExternalExternalExternalExternalExternal

 Recovered energy= -7.02908091273     dipole=      0.169733741943      0.483636065669      0.000001307646
 Energy=    -7.02908091     NIter=   0.
 Dipole moment=       0.169734       0.483636       0.000001
 Leave Link  402 at Thu Jul  9 07:41:41 2026, MaxMem=   268435456 cpu:               0.1 elap:               0.1
 (Enter /sw/isaac/applications/gaussian/16C01/rhel8_cascadelake_binary_x86_64_avx2/g16/l601.exe)
 Leave Link  601 at Thu Jul  9 07:41:41 2026, MaxMem=   268435456 cpu:               0.0 elap:               0.0
 (Enter /sw/isaac/applications/gaussian/16C01/rhel8_cascadelake_binary_x86_64_avx2/g16/l716.exe)
 Dipole        = 1.69733742D-01 4.83636066D-01 1.30764626D-06
 ***** Axes restored to original set *****
 -------------------------------------------------------------------
 Center     Atomic                   Forces (Hartrees/Bohr)
 Number     Number              X              Y              Z
 -------------------------------------------------------------------
      1        6           0.000115212   -0.000048357   -0.000000039
      2        8           0.000120778    0.000370811    0.000000001
      3        1          -0.000016340   -0.000006243    0.000000040
      4        1          -0.000219650   -0.000316212   -0.000000001
 -------------------------------------------------------------------
 Cartesian Forces:  Max     0.000370811 RMS     0.000162338
 Force constants in Cartesian coordinates: 
                1             2             3             4             5 
      1  0.438498D+00
      2  0.525487D-01  0.334290D+00
      3  0.000000D+00  0.000000D+00  0.100706D-01
      4 -0.477258D+00 -0.107837D+00  0.000000D+00  0.496951D+00
      5 -0.280294D+00 -0.111305D-01  0.000000D+00  0.806802D-01 -0.121946D-01
      6  0.000000D+00  0.000000D+00  0.143621D-02  0.000000D+00  0.000000D+00
      7 -0.763851D-01  0.636675D-01  0.000000D+00 -0.438288D-01  0.389156D-01
      8  0.910622D-01 -0.225658D+00  0.000000D+00  0.349984D-01  0.517120D-01
      9  0.000000D+00  0.000000D+00 -0.562972D-02  0.000000D+00  0.000000D+00
     10  0.115145D+00 -0.837915D-02  0.000000D+00  0.241355D-01  0.160698D+00
     11  0.136683D+00 -0.975021D-01  0.000000D+00 -0.784157D-02 -0.283869D-01
     12  0.000000D+00  0.000000D+00 -0.587706D-02  0.000000D+00  0.000000D+00
                6             7             8             9            10 
      6  0.204824D-03
      7  0.000000D+00  0.125274D+00
      8  0.000000D+00 -0.988004D-01  0.186631D+00
      9 -0.802878D-03  0.000000D+00  0.000000D+00  0.314716D-02
     10  0.000000D+00 -0.506001D-02 -0.272603D-01  0.000000D+00 -0.134221D+00
     11  0.000000D+00 -0.378266D-02 -0.126852D-01  0.000000D+00 -0.125059D+00
     12 -0.838153D-03  0.000000D+00  0.000000D+00  0.328543D-02  0.000000D+00
               11            12 
     11  0.138574D+00
     12  0.000000D+00  0.342978D-02
 FormGI is forming the generalized inverse of G from B-inverse, IUseBI=4.
 Force constants in internal coordinates: 
                1             2             3             4             5 
      1  0.507824D+00
      2  0.567283D-01  0.258951D+00
      3  0.512634D-01 -0.911257D-02  0.112616D+00
      4  0.271973D-01 -0.149909D-02 -0.103991D+00  0.841028D-01
      5 -0.459696D-01  0.234201D-01  0.223958D+00  0.212839D-01 -0.187225D+00
      6 -0.187722D-01  0.219210D-01  0.119966D+00  0.105387D+00 -0.165941D+00
      7  0.000000D+00  0.000000D+00  0.000000D+00  0.000000D+00  0.000000D+00
      8  0.000000D+00  0.000000D+00  0.000000D+00  0.000000D+00  0.000000D+00
                6             7             8 
      6 -0.605547D-01
      7  0.000000D+00  0.519605D-04
      8  0.000000D+00 -0.195951D-03  0.738959D-03
 Leave Link  716 at Thu Jul  9 07:41:41 2026, MaxMem=   268435456 cpu:               0.0 elap:               0.0
 (Enter /sw/isaac/applications/gaussian/16C01/rhel8_cascadelake_binary_x86_64_avx2/g16/l103.exe)

 GradGradGradGradGradGradGradGradGradGradGradGradGradGradGradGradGradGrad
 Berny optimization.
 Red2BG is reusing G-inverse.
 Internal  Forces:  Max     0.000577353 RMS     0.000260047
 Search for a saddle point.
 Step number   1 out of a maximum of   20
 All quantities printed in internal units (Hartrees-Bohrs-Radians)
 Swapping is turned off.
 Second derivative matrix not updated -- analytic derivatives used.
 The second derivative matrix:
                          R1        R2        R3        A1        A2
           R1           0.50782
           R2           0.05673   0.25895
           R3           0.05126  -0.00911   0.11262
           A1           0.02720  -0.00150  -0.10399   0.08410
           A2          -0.04597   0.02342   0.22396   0.02128  -0.18723
           A3          -0.01877   0.02192   0.11997   0.10539  -0.16594
           A4          -0.00000   0.00000   0.00000   0.00000  -0.00000
           D1           0.00000  -0.00000  -0.00000  -0.00000   0.00000
                          A3        A4        D1
           A3          -0.06055
           A4          -0.00000   0.00005
           D1           0.00000  -0.00020   0.00074
 ITU=  0
     Eigenvalues ---   -0.45297   0.00079   0.12271   0.24970   0.26956
     Eigenvalues ---    0.52670
 Eigenvectors required to have negative eigenvalues:
                          A2        A3        R3        A1        R1
   1                   -0.71272  -0.49844   0.43507   0.21429  -0.07612
                          R2        D1        A4
   1                    0.05088   0.00000  -0.00000
 RFO step:  Lambda0=8.370697817D-07 Lambda=-5.48837182D-07.
 Linear search not attempted -- option 19 set.
 Iteration  1 RMS(Cart)=  0.00057654 RMS(Int)=  0.00000013
 Iteration  2 RMS(Cart)=  0.00000015 RMS(Int)=  0.00000000
 ITry= 1 IFail=0 DXMaxC= 1.15D-03 DCOld= 1.00D+10 DXMaxT= 3.00D-01 DXLimC= 3.00D+00 Rises=F
 Variable       Old X    -DE/DX   Delta X   Delta X   Delta X     New X
                                 (Linear)    (Quad)   (Total)
    R1        2.51101  -0.00019   0.00000  -0.00014  -0.00014   2.51087
    R2        2.10394  -0.00000   0.00000  -0.00014  -0.00014   2.10380
    R3        2.31408  -0.00005   0.00000  -0.00177  -0.00177   2.31231
    A1        1.95044   0.00027   0.00000   0.00018   0.00018   1.95061
    A2        0.94230  -0.00058   0.00000   0.00045   0.00045   0.94275
    A3        2.89274  -0.00031   0.00000   0.00062   0.00062   2.89336
    A4        3.14159  -0.00000   0.00000  -0.00000  -0.00000   3.14159
    D1       -0.00000   0.00000   0.00000   0.00001   0.00001   0.00001
         Item               Value     Threshold  Converged?
 Maximum Force            0.000577     0.000450     NO 
 RMS     Force            0.000260     0.000300     YES
 Maximum Displacement     0.001152     0.001800     YES
 RMS     Displacement     0.000577     0.001200     YES
 Predicted change in Energy= 1.441171D-07
 GradGradGradGradGradGradGradGradGradGradGradGradGradGradGradGradGradGrad

 Leave Link  103 at Thu Jul  9 07:41:41 2026, MaxMem=   268435456 cpu:               0.0 elap:               0.0
 (Enter /sw/isaac/applications/gaussian/16C01/rhel8_cascadelake_binary_x86_64_avx2/g16/l202.exe)
                          Input orientation:                          
 ---------------------------------------------------------------------
 Center     Atomic      Atomic             Coordinates (Angstroms)
 Number     Number       Type             X           Y           Z
 ---------------------------------------------------------------------
      1          6           0        0.667927    0.144093    0.000001
      2          8           0       -0.632007   -0.130869   -0.000002
      3          1           0        1.285708   -0.782053    0.000003
      4          1           0       -0.240364    0.964005    0.000002
 ---------------------------------------------------------------------
                    Distance matrix (angstroms):
                    1          2          3          4
     1  C    0.000000
     2  O    1.328696   0.000000
     3  H    1.113284   2.025259   0.000000
     4  H    1.223620   1.162813   2.318968   0.000000
 Stoichiometry    CH2O
 Framework group  C1[X(CH2O)]
 Deg. of freedom     6
 Full point group                 C1      NOp   1
 RotChk:  IX=0 Diff= 4.74D-04
 Largest Abelian subgroup         C1      NOp   1
 Largest concise Abelian subgroup C1      NOp   1
                         Standard orientation:                         
 ---------------------------------------------------------------------
 Center     Atomic      Atomic             Coordinates (Angstroms)
 Number     Number       Type             X           Y           Z
 ---------------------------------------------------------------------
      1          6           0        0.668172    0.143897    0.000001
      2          8           0       -0.631854   -0.130629   -0.000002
      3          1           0        1.285643   -0.782457    0.000003
      4          1           0       -0.239843    0.964113    0.000002
 ---------------------------------------------------------------------
 Rotational constants (GHZ):         259.9164484          37.2666830          32.5934512
 Leave Link  202 at Thu Jul  9 07:41:41 2026, MaxMem=   268435456 cpu:               0.0 elap:               0.0
 (Enter /sw/isaac/applications/gaussian/16C01/rhel8_cascadelake_binary_x86_64_avx2/g16/l301.exe)
 Standard basis: STO-3G (5D, 7F)
 Ernie: Thresh=  0.10000D-02 Tol=  0.10000D-05 Strict=F.
 There are    12 symmetry adapted cartesian basis functions of A   symmetry.
 There are    12 symmetry adapted basis functions of A   symmetry.
    12 basis functions,    36 primitive gaussians,    12 cartesian basis functions
     8 alpha electrons        8 beta electrons
       nuclear repulsion energy        30.5228355384 Hartrees.
 IExCor=    0 DFT=F Ex=HF Corr=None ExCW=0 ScaHFX=  1.000000
 ScaDFX=  1.000000  1.000000  1.000000  1.000000 ScalE2=  1.000000  1.000000
 IRadAn=      5 IRanWt=     -1 IRanGd=            0 ICorTp=0 IEmpDi=  4
 NAtoms=    4 NActive=    4 NUniq=    4 SFac= 1.00D+00 NAtFMM=   60 NAOKFM=F Big=F
 Integral buffers will be    131072 words long.
 Raffenetti 1 integral format.
 Two-electron integral symmetry is turned on.
 Leave Link  301 at Thu Jul  9 07:41:41 2026, MaxMem=   268435456 cpu:               0.0 elap:               0.0
 (Enter /sw/isaac/applications/gaussian/16C01/rhel8_cascadelake_binary_x86_64_avx2/g16/l402.exe)
 External calculation of energy and first derivatives.
 Running external command "/lustre/isaac24/scratch/usuresh3/xtb-gaussian/xtb-g R"
         input file       "/lustre/isaac24/scratch/usuresh3/paper/berny_results/hcho/Gau-1283041.EIn"
         output file      "/lustre/isaac24/scratch/usuresh3/paper/berny_results/hcho/Gau-1283041.EOu"
         message file     "/lustre/isaac24/scratch/usuresh3/paper/berny_results/hcho/Gau-1283041.EMs"
         fchk file        "/lustre/isaac24/scratch/usuresh3/paper/berny_results/hcho/Gau-1283041.EFC"
         mat. el file     "/lustre/isaac24/scratch/usuresh3/paper/berny_results/hcho/Gau-1283041.EUF"

 ExternalExternalExternalExternalExternalExternalExternalExternalExternalExternal
 Output from external command:
 "/lustre/isaac24/scratch/usuresh3/xtb-gaussian/xtb-g R /lustre/isaac24/scratch/usuresh3/paper/berny_results/hcho/Gau-1283041.EIn /lustre/isaac24/scratch/usuresh3/paper/berny_results/hcho/Gau-1283041.EOu /lustre/isaac24/scratch/usuresh3/paper/berny_results/hcho/Gau-1283041.EMs /lustre/isaac24/scratch/usuresh3/paper/berny_results/hcho/Gau-1283041.EFC /lustre/isaac24/scratch/usuresh3/paper/berny_results/hcho/Gau-1283041.EUF"
 Note: The following floating-point exceptions are signalling: IEEE_DENORMAL
 normal termination of xtb
  
 ------- xtb command was ---------
 ?> xtb ./Gau-1283041.EIn  --grad --charge 0  >/dev/null 2>Gau-1283041.EMs
 ---------------------------------
              Control returned to Gaussian.
 ~~~~~~~~~~~~~~~~~~~~~~~~~~~~~~~~~~~~~~~~~~~~~~~~~~~~~~~~~~~~~~~~~~~~~~~~~
 ExternalExternalExternalExternalExternalExternalExternalExternalExternalExternal

 Recovered energy= -7.02908077577     dipole=      0.171718009412      0.483415564308      0.000003052350
 Energy=    -7.02908078     NIter=   0.
 Dipole moment=       0.171718       0.483416       0.000003
 Leave Link  402 at Thu Jul  9 07:41:42 2026, MaxMem=   268435456 cpu:               0.1 elap:               0.1
 (Enter /sw/isaac/applications/gaussian/16C01/rhel8_cascadelake_binary_x86_64_avx2/g16/l716.exe)
 Dipole        = 1.71718009D-01 4.83415564D-01 3.05235032D-06
 ***** Axes restored to original set *****
 -------------------------------------------------------------------
 Center     Atomic                   Forces (Hartrees/Bohr)
 Number     Number              X              Y              Z
 -------------------------------------------------------------------
      1        6           0.000002234    0.000002834    0.000000035
      2        8          -0.000005570   -0.000004382    0.000000006
      3        1          -0.000000101    0.000000029   -0.000000020
      4        1           0.000003438    0.000001519   -0.000000021
 -------------------------------------------------------------------
 Cartesian Forces:  Max     0.000005570 RMS     0.000002539
 Leave Link  716 at Thu Jul  9 07:41:42 2026, MaxMem=   268435456 cpu:               0.0 elap:               0.0
 (Enter /sw/isaac/applications/gaussian/16C01/rhel8_cascadelake_binary_x86_64_avx2/g16/l103.exe)

 GradGradGradGradGradGradGradGradGradGradGradGradGradGradGradGradGradGrad
 Berny optimization.
 FormGI is forming the generalized inverse of G from B-inverse, IUseBI=4.
 Internal  Forces:  Max     0.000006357 RMS     0.000003248
 Search for a saddle point.
 Step number   2 out of a maximum of   20
 All quantities printed in internal units (Hartrees-Bohrs-Radians)
 Swapping is turned off.
 Update second derivatives using D2CorX and points    1    2
 The second derivative matrix:
                          R1        R2        R3        A1        A2
           R1           0.50828
           R2           0.05697   0.25895
           R3           0.05426  -0.00912   0.11236
           A1           0.02680  -0.00160  -0.10528   0.08436
           A2          -0.04655   0.02360   0.22630   0.02138  -0.18839
           A3          -0.01975   0.02200   0.12102   0.10574  -0.16701
           A4           0.00001   0.00000   0.00000  -0.00000   0.00000
           D1          -0.00002  -0.00000  -0.00001   0.00001  -0.00001
                          A3        A4        D1
           A3          -0.06126
           A4           0.00000   0.00005
           D1          -0.00000  -0.00020   0.00074
 ITU=  0  0
     Eigenvalues ---   -0.45713   0.00079   0.12262   0.24966   0.27138
     Eigenvalues ---    0.52776
 Eigenvectors required to have negative eigenvalues:
                          A2        A3        R3        A1        R1
   1                    0.71204   0.49781  -0.43658  -0.21423   0.07802
                          R2        D1        A4
   1                   -0.05101   0.00003  -0.00000
 RFO step:  Lambda0=1.006536243D-10 Lambda= 0.00000000D+00.
 Linear search not attempted -- option 19 set.
 Iteration  1 RMS(Cart)=  0.00000531 RMS(Int)=  0.00000000
 Iteration  2 RMS(Cart)=  0.00000000 RMS(Int)=  0.00000000
 ITry= 1 IFail=0 DXMaxC= 1.00D-05 DCOld= 1.00D+10 DXMaxT= 3.00D-01 DXLimC= 3.00D+00 Rises=F
 Variable       Old X    -DE/DX   Delta X   Delta X   Delta X     New X
                                 (Linear)    (Quad)   (Total)
    R1        2.51087   0.00001   0.00000   0.00001   0.00001   2.51088
    R2        2.10380  -0.00000   0.00000  -0.00000  -0.00000   2.10380
    R3        2.31231  -0.00000   0.00000   0.00001   0.00001   2.31232
    A1        1.95061  -0.00000   0.00000  -0.00000  -0.00000   1.95061
    A2        0.94275   0.00001   0.00000  -0.00001  -0.00001   0.94274
    A3        2.89336   0.00000   0.00000  -0.00001  -0.00001   2.89335
    A4        3.14159   0.00000   0.00000   0.00000   0.00000   3.14159
    D1        0.00001  -0.00000   0.00000  -0.00001  -0.00001   0.00000
         Item               Value     Threshold  Converged?
 Maximum Force            0.000006     0.000450     YES
 RMS     Force            0.000003     0.000300     YES
 Maximum Displacement     0.000010     0.001800     YES
 RMS     Displacement     0.000005     0.001200     YES
 Predicted change in Energy= 6.932812D-12
 Optimization completed.
    -- Stationary point found.
                           ----------------------------
                           !   Optimized Parameters   !
                           ! (Angstroms and Degrees)  !
 --------------------------                            --------------------------
 ! Name  Definition              Value          Derivative Info.                !
 --------------------------------------------------------------------------------
 ! R1    R(1,2)                  1.3287         -DE/DX =    0.0                 !
 ! R2    R(1,3)                  1.1133         -DE/DX =    0.0                 !
 ! R3    R(1,4)                  1.2236         -DE/DX =    0.0                 !
 ! A1    A(2,1,3)              111.7619         -DE/DX =    0.0                 !
 ! A2    A(2,1,4)               54.0157         -DE/DX =    0.0                 !
 ! A3    L(3,1,4,2,-1)         165.7776         -DE/DX =    0.0                 !
 ! A4    L(3,1,4,2,-2)         179.9998         -DE/DX =    0.0                 !
 ! D1    D(2,1,4,3)              0.0007         -DE/DX =    0.0                 !
 --------------------------------------------------------------------------------
 Largest change from initial coordinates is atom    4       0.001 Angstoms.
 GradGradGradGradGradGradGradGradGradGradGradGradGradGradGradGradGradGrad

 Leave Link  103 at Thu Jul  9 07:41:42 2026, MaxMem=   268435456 cpu:               0.0 elap:               0.0
 (Enter /sw/isaac/applications/gaussian/16C01/rhel8_cascadelake_binary_x86_64_avx2/g16/l202.exe)
                          Input orientation:                          
 ---------------------------------------------------------------------
 Center     Atomic      Atomic             Coordinates (Angstroms)
 Number     Number       Type             X           Y           Z
 ---------------------------------------------------------------------
      1          6           0        0.667927    0.144093    0.000001
      2          8           0       -0.632007   -0.130869   -0.000002
      3          1           0        1.285708   -0.782053    0.000003
      4          1           0       -0.240364    0.964005    0.000002
 ---------------------------------------------------------------------
                    Distance matrix (angstroms):
                    1          2          3          4
     1  C    0.000000
     2  O    1.328696   0.000000
     3  H    1.113284   2.025259   0.000000
     4  H    1.223620   1.162813   2.318968   0.000000
 Stoichiometry    CH2O
 Framework group  C1[X(CH2O)]
 Deg. of freedom     6
 Full point group                 C1      NOp   1
 RotChk:  IX=0 Diff= 4.34D-16
 Largest Abelian subgroup         C1      NOp   1
 Largest concise Abelian subgroup C1      NOp   1
                         Standard orientation:                         
 ---------------------------------------------------------------------
 Center     Atomic      Atomic             Coordinates (Angstroms)
 Number     Number       Type             X           Y           Z
 ---------------------------------------------------------------------
      1          6           0        0.668172    0.143897    0.000001
      2          8           0       -0.631854   -0.130629   -0.000002
      3          1           0        1.285643   -0.782457    0.000003
      4          1           0       -0.239843    0.964113    0.000002
 ---------------------------------------------------------------------
 Rotational constants (GHZ):         259.9164484          37.2666830          32.5934512
 Leave Link  202 at Thu Jul  9 07:41:42 2026, MaxMem=   268435456 cpu:               0.0 elap:               0.0
 (Enter /sw/isaac/applications/gaussian/16C01/rhel8_cascadelake_binary_x86_64_avx2/g16/l601.exe)
 Leave Link  601 at Thu Jul  9 07:41:42 2026, MaxMem=   268435456 cpu:               0.0 elap:               0.0
 (Enter /sw/isaac/applications/gaussian/16C01/rhel8_cascadelake_binary_x86_64_avx2/g16/l9999.exe)
 Unable to Open any file for archive entry.
 1\1\GINC-GEN1443\FTS\External='/lustre/isaac24/scratch/usuresh3/xtb-ga
 ussian/xtb-g'\ZDO\C1H2O1\USURESH3\09-Jul-2026\0\\#p External="/lustre/
 isaac24/scratch/usuresh3/xtb-gaussian/xtb-g" Opt=(TS, CalcFC, NoEigenT
 est, NoMicro)\\Title: hcho ts search via xTB-Gaussian\\0,1\C,0.6679267
 789,0.1440931316,0.0000008702\O,-0.6320072703,-0.1308688797,-0.0000021
 618\H,1.2857081393,-0.7820532506,0.0000026316\H,-0.2403636479,0.964004
 9986,0.00000166\\Version=ES64L-G16RevC.01\HF=-7.0290808\RMSD=0.000e+00
 \RMSF=2.539e-06\Dipole=0.1715559,0.4834731,0.0000031\PG=C01 [X(C1H2O1)
 ]\\@
 The archive entry for this job was punched.


     "IF I COULD JUST GET IT ON PAPER"
 LIFE AND INK, THEY RUN OUT AT THE SAME TIME,
 OR SO SAID MY OLD FRIEND THE SQUID.
     -- JIMMY BUFFETT, 1981
 Job cpu time:       0 days  0 hours  0 minutes  0.6 seconds.
 Elapsed time:       0 days  0 hours  0 minutes  0.5 seconds.
 File lengths (MBytes):  RWF=      6 Int=      0 D2E=      0 Chk=      1 Scr=      1
 Normal termination of Gaussian 16 at Thu Jul  9 07:41:42 2026.
