4
Properties=species:S:1:pos:R:3:forces:R:3:charge:R:1 0=T 1=T energy=-141.68348237722978 free_energy=-141.68348237722978 dipole="-7.026280695910433e-06 9.859798651925953e-06 1.7497530370708803e-06" pbc="F F F"
H        9.20596078      10.28612168       8.05295502      -0.00002469      -0.00037698      -0.00096043       0.07950985
H        9.40049829      10.84182702      11.29305679       0.00016261       0.00021489       0.00105019       0.07950993
C        9.26797524      10.46313720       9.08575033       0.00024271       0.00104971       0.00361299      -0.07951074
C        9.33853826      10.66474128      10.26027208      -0.00038063      -0.00088762      -0.00370275      -0.07950904
4
Properties=species:S:1:pos:R:3:forces:R:3:charge:R:1 0=T 1=T energy=-141.6834804133315 free_energy=-141.6834804133315 dipole="9.748112962785025e-05 -7.03698717490373e-05 1.3748760410497018e-05" pbc="F F F"
H        9.28261815      10.32224725       8.16485208      -0.00026964       0.00155097       0.00631860       0.07950252
H        9.47010524      10.86793967      11.40750424      -0.00150881      -0.00013503      -0.00594610       0.07950353
C        9.34219223      10.49634186       9.19848277       0.00033948       0.00034426       0.00296424      -0.07950425
C        9.40980011      10.69438714      10.37383802       0.00143897      -0.00176021      -0.00333675      -0.07950179
4
Properties=species:S:1:pos:R:3:forces:R:3:charge:R:1 0=T 1=T energy=-141.6834725874957 free_energy=-141.6834725874957 dipole="0.0003977848552330884 -0.0002914996861340432 3.7188784516874414e-05" pbc="F F F"
H        9.36986014      10.37126893       8.30006681      -0.00316166       0.00246972       0.00039107       0.07949952
H        9.56028245      10.89366053      11.54583344      -0.00402641       0.00352344       0.00247518       0.07950690
C        9.42939414      10.53866436       9.33465741       0.00165897      -0.00359159      -0.01127087      -0.07950082
C        9.49775777      10.72849492      10.51114952       0.00552910      -0.00240157       0.00840463      -0.07950560
4
Properties=species:S:1:pos:R:3:forces:R:3:charge:R:1 0=T 1=T energy=-141.68346782798852 free_energy=-141.68346782798852 dipole="-0.000491326640754976 0.0003491756627644081 -2.578629296152833e-05" pbc="F F F"
H        9.43073088      10.42331733       8.41784751       0.00417915      -0.00293951       0.00013170       0.07950589
H        9.65035389      10.91018359      11.66719347       0.00561154      -0.00202625       0.01041287       0.07952835
C        9.50234025      10.57740878       9.45371852      -0.00328106       0.00288748       0.00329166      -0.07950973
C        9.58246295      10.75349256      10.63173402      -0.00650963       0.00207828      -0.01383622      -0.07952451
4
Properties=species:S:1:pos:R:3:forces:R:3:charge:R:1 0=T 1=T energy=-141.49311269224523 free_energy=-141.49311269224523 dipole="-0.05308576094954402 0.03633782207236242 -0.014592132351719564" pbc="F F F"
H        9.41600048      10.53244156       8.54621065       0.28292130      -0.27260190      -0.34035151       0.07741303
H        9.60647494      10.98755076      11.70492820       0.51724818      -0.23962798       0.74881898       0.08329350
C        9.58530467      10.60134181       9.57361958      -0.14270003       0.05403108      -0.27246654      -0.07719354
C        9.81478685      10.65312263      10.74397549      -0.65746945       0.45819880      -0.13600092      -0.08351299
4
Properties=species:S:1:pos:R:3:forces:R:3:charge:R:1 0=T 1=T energy=-140.72545757205486 free_energy=-140.72545757205486 dipole="-0.14033559656955852 0.09101898547993831 -0.06489806649663576" pbc="F F F"
H        9.34131124      10.60127038       8.63156401       0.44652615      -0.48267399      -0.81695879       0.06860774
H        9.46860048      11.05046982      11.50951369       0.76869143      -0.19481441       1.96573706       0.10767125
C        9.61625883      10.58812463       9.63444538      -0.13822928      -0.02645759      -0.67962501      -0.06811809
C        9.98769131      10.53085952      10.77970480      -1.07698830       0.70394599      -0.46915325      -0.10816090
4
Properties=species:S:1:pos:R:3:forces:R:3:charge:R:1 0=T 1=T energy=-139.59063295097994 free_energy=-139.59063295097994 dipole="-0.3014052441081997 0.19157358832641586 -0.16040518693043318" pbc="F F F"
H        9.28306245      10.66602623       8.74184268       0.29919119      -0.37765477      -0.83413672       0.05355506
H        9.36943068      11.07604626      11.25358906       0.65555101      -0.08934962       2.08462472       0.17385626
C        9.63557478      10.59198913       9.72550958       0.07676124      -0.22241298      -0.88176128      -0.05167325
C       10.13005473      10.43848959      10.84089723      -1.03150344       0.68941737      -0.36872671      -0.17573807
4
Properties=species:S:1:pos:R:3:forces:R:3:charge:R:1 0=T 1=T energy=-139.07045878041384 free_energy=-139.07045878041384 dipole="-0.46797924080479025 0.30198039607873606 -0.2249547219204473" pbc="F F F"
H        9.24229890      10.71661223       8.85030882      -0.00617042       0.00796833       0.01798821       0.04993558
H        9.28407956      11.08785465      10.98261543      -0.06676278       0.03975096      -0.04980039       0.22614369
C        9.62818851      10.61942067       9.84104275      -0.00123183       0.00760060       0.03588012      -0.05360071
C       10.26415143      10.34891911      10.88879587       0.07416503      -0.05531989      -0.00406795      -0.22247855
4
Properties=species:S:1:pos:R:3:forces:R:3:charge:R:1 0=T 1=T energy=-139.22204825818994 free_energy=-139.22204825818994 dipole="-0.44595194056286985 0.28274840676854257 -0.2406844600643395" pbc="F F F"
H        9.24831395      10.72726570       8.94697074       0.00807810       0.01658822       0.11884099       0.06427666
H        9.12028996      11.17305455      10.80839644      -0.18173009       0.09640723      -0.19793514       0.17518212
C        9.61589759      10.64637815       9.95093508      -0.01806454       0.03941016       0.13929789      -0.06738122
C       10.42159622      10.22069696      10.83687947       0.19171653      -0.15240562      -0.06020374      -0.17207756
4
Properties=species:S:1:pos:R:3:forces:R:3:charge:R:1 0=T 1=T energy=-139.31941810606068 free_energy=-139.31941810606068 dipole="-0.46469508625197536 0.2965239464910345 -0.23922787919376803" pbc="F F F"
H        9.31709567      10.71703713       9.07701699       0.01876208      -0.01004042       0.01971302       0.09491264
H        8.96870006      11.28867801      10.75849884      -0.04377053       0.02914035      -0.01628945       0.11870410
C        9.60974173      10.69686343      10.11488060      -0.00507959       0.00969504       0.03240510      -0.07082314
C       10.57919470      10.09424472      10.69927243       0.03008804      -0.02879497      -0.03582867      -0.14279361
4
Properties=species:S:1:pos:R:3:forces:R:3:charge:R:1 0=T 1=T energy=-139.3235991803318 free_energy=-139.3235991803318 dipole="-0.47775180216345753 0.31676067756992077 -0.1913747756151847" pbc="F F F"
H        9.40892695      10.79919002       9.28948378      -0.00385491       0.00202364      -0.00489622       0.10860256
H        9.06339895      11.33969829      10.97452206       0.00671204      -0.00397940       0.00520277       0.10402386
C        9.70634353      10.75913832      10.32867280      -0.00457691       0.00134475      -0.01102814      -0.07093663
C       10.72341893      10.08203128      10.72003834       0.00171978       0.00061102       0.01072159      -0.14168978
4
Properties=species:S:1:pos:R:3:forces:R:3:charge:R:1 0=T 1=T energy=-139.3237385901052 free_energy=-139.3237385901052 dipole="-0.47888814654812306 0.3215996417368829 -0.18187719114839979" pbc="F F F"
H        9.49286513      10.87219064       9.44264865       0.00973895      -0.00628816       0.00654984       0.10624517
H        9.17420282      11.36167233      11.14740829       0.01068333      -0.00776710       0.00130949       0.10625710
C        9.80704167      10.79888904      10.47485559      -0.00985067       0.00711894      -0.00386282      -0.07088522
C       10.82303311      10.11669068      10.86073588      -0.01057162       0.00693632      -0.00399652      -0.14161705
