10
Properties=species:S:1:pos:R:3:forces:R:3:charge:R:1 energy:=T -17.028763043077=T gnorm:=T 0.000592469105=T xtb:=T 6.7.1=T (edcfbbe)=T energy=-463.3762446801337 free_energy=-463.3762446801337 dipole="0.47659488312628207 -0.01331126850670412 0.0846486346319149" pbc="F F F"
C       11.23748266       9.24276696      10.03224688      -0.00870168      -0.00523672       0.00079556       0.07643946
C        9.13357385      10.01558251      10.06108180      -0.00737337       0.00941744      -0.00494788       0.13472933
C       11.25228100      10.75324593      10.32454987      -0.01316419       0.01018713      -0.00195914       0.07558987
O        9.90152582      11.14746094      10.18810900       0.00814618      -0.00562002       0.00411137      -0.27130100
O        9.88539321       8.87285648      10.18870841       0.00649509      -0.00601288       0.00458434      -0.26985252
H       11.56084827       9.02915215       9.00521789       0.00253860      -0.00167906      -0.00673512       0.04686804
H       11.86596456      11.31779754       9.61955131       0.00385715       0.00201111      -0.00171501       0.05286541
H        8.19842061      10.01104106      10.60306487      -0.00124280      -0.00036946      -0.00106185       0.05316667
H       11.84025985       8.66072056      10.73086201       0.00617476      -0.00311346       0.00341759       0.05478702
H       11.58261863      10.96957916      11.34835294       0.00327026       0.00041592       0.00351015       0.04670772
10
Properties=species:S:1:pos:R:3:forces:R:3:charge:R:1 energy:=T -17.028763043077=T gnorm:=T 0.000592469105=T xtb:=T 6.7.1=T (edcfbbe)=T energy=-463.3753605950516 free_energy=-463.3753605950516 dipole="0.47866191350169507 -0.022086554903220243 0.04654990984189136" pbc="F F F"
C       11.14040214       9.58761422       9.98977312      -0.00092909       0.00958625      -0.00643679       0.07652687
C        9.05649120      10.40571994      10.11015205       0.00316293      -0.00260844      -0.00816532       0.13381865
C       11.20139149      11.10379035      10.25653622      -0.02310983       0.02437230      -0.00613524       0.07541541
O        9.85009783      11.51989456      10.23957467       0.04511004      -0.00567694      -0.00320197      -0.27070004
O        9.78880271       9.24655530      10.20070334       0.00773527      -0.00212119       0.00699319      -0.26967954
H       11.42050910       9.35473614       8.95437043       0.00528361      -0.01031655      -0.00825830       0.04664088
H       11.75601877      11.64272047       9.48368577      -0.00597230       0.00119345       0.00428146       0.05164441
H        8.13718096      10.41175596      10.67694031      -0.00966964       0.00332105       0.01453703       0.05366639
H       11.75790368       8.99916930      10.67093052      -0.00249592       0.01839724       0.01077349       0.05463662
H       11.63149458      11.34250376      11.23737709      -0.01911507      -0.03614717      -0.00438756       0.04803034
10
Properties=species:S:1:pos:R:3:forces:R:3:charge:R:1 energy:=T -17.028763043077=T gnorm:=T 0.000592469105=T xtb:=T 6.7.1=T (edcfbbe)=T energy=-462.8262932266555 free_energy=-462.8262932266555 dipole="0.14033185804005285 -0.43132352628582055 -0.050204861111246564" pbc="F F F"
C       11.16123690       9.84037883       9.95192098      -0.01538060      -0.00586032      -0.01020981       0.07171836
C        8.97503405      10.72296485      10.44270871      -0.01165591      -0.00370209       0.00026485       0.34594039
C       11.67432138      11.19965465      10.08381556      -0.00611663       0.00420721       0.01048976      -0.10535983
O        9.29319208      11.87710938      10.40755437       0.03648242      -0.01798612      -0.00661391      -0.35990652
O        9.71745965       9.66883920      10.26783219       0.00749705      -0.01368264      -0.00924310      -0.25099455
H       11.25062750       9.46593744       8.92748391      -0.01262919      -0.00567721       0.00258855       0.06698590
H       11.69067761      11.85969168       9.23989359       0.01637148       0.00559168       0.02512193       0.06305217
H        7.93843930      10.38512741      10.64489834       0.01281782       0.01421902       0.01087441       0.03896686
H       11.63875978       9.14134599      10.64608341       0.00757968       0.01706795       0.00076624       0.07159269
H       11.97628837      11.57698018      11.04141675      -0.03496611       0.00582252      -0.02403893       0.05800453
10
Properties=species:S:1:pos:R:3:forces:R:3:charge:R:1 energy:=T -17.028763043077=T gnorm:=T 0.000592469105=T xtb:=T 6.7.1=T (edcfbbe)=T energy=-462.83896173972033 free_energy=-462.83896173972033 dipole="0.1603470006365029 -0.4150549212057271 0.05356204741570779" pbc="F F F"
C       11.23978354       9.57748118      10.01936966      -0.00585348      -0.00999904      -0.00053586       0.07581655
C        9.01901696      10.38416740      10.24468030      -0.00999825       0.01986201      -0.01047675       0.34337369
C       11.72966165      10.91732235      10.33895222      -0.00884620      -0.01125371       0.03993399      -0.10731957
O        9.29937825      11.50182147       9.91926653      -0.01201273      -0.02929274      -0.00227443      -0.36131811
O        9.82378856       9.35930228      10.35726840      -0.00214457       0.01273053       0.00526908      -0.24968895
H       11.34372748       9.34736430       8.95571529       0.00167788       0.00686820      -0.01213340       0.06275084
H       12.02795756      11.59613442       9.56855739       0.00719496       0.01430625      -0.01890495       0.06563087
H        7.99570701      10.06142364      10.51423881       0.00851322       0.00249272       0.00180054       0.03733693
H       11.73287505       8.79748870      10.61297947       0.00874335      -0.00269066       0.00420671       0.07807547
H       11.68881099      11.26901537      11.35194613       0.01272581      -0.00302357      -0.00688493       0.05534229
10
Properties=species:S:1:pos:R:3:forces:R:3:charge:R:1 energy:=T -17.028763043077=T gnorm:=T 0.000592469105=T xtb:=T 6.7.1=T (edcfbbe)=T energy=-462.83148819365385 free_energy=-462.83148819365385 dipole="0.2231207716168352 -0.34882538420094955 0.18674443540762295" pbc="F F F"
C       11.23015482       9.63056580      10.06535694      -0.00274194      -0.00068395       0.00258273       0.07776548
C        8.98065009      10.32950799      10.09591270      -0.00821376       0.01387617      -0.01177448       0.34128368
C       11.81007466      10.90468290      10.49740216      -0.00463018       0.02132104       0.03490425      -0.10518723
O        9.18942098      11.26186152       9.37807404      -0.00093599      -0.01691113       0.02729541      -0.36972499
O        9.85657160       9.45053362      10.53259261      -0.00150406      -0.00569864      -0.01496377      -0.25154070
H       11.22774667       9.54066247       8.97593116       0.00811995      -0.00089083      -0.00804207       0.06550030
H       12.08748915      11.65430359       9.78492146       0.01347458      -0.00986885       0.00126973       0.06942081
H        7.98725882      10.06619615      10.50199904      -0.00237789       0.00456377       0.00472837       0.03331197
H       11.74045893       8.76867323      10.51222396       0.00563674      -0.00572948       0.00504820       0.08139437
H       11.80079180      11.15492789      11.54244802      -0.00682746       0.00002190      -0.04104837       0.05777630
10
Properties=species:S:1:pos:R:3:forces:R:3:charge:R:1 energy:=T -17.028763043077=T gnorm:=T 0.000592469105=T xtb:=T 6.7.1=T (edcfbbe)=T energy=-462.81868594831593 free_energy=-462.81868594831593 dipole="0.24009557598436973 -0.2836841884850705 0.2616483564986055" pbc="F F F"
C       11.21947357       9.69522329      10.09445185      -0.00050653      -0.00240196       0.00095545       0.07452652
C        8.94568994      10.34611313      10.02099759      -0.00937771      -0.00697394       0.00481824       0.34138987
C       11.86183065      10.93695262      10.53643049       0.00915044       0.01222282       0.02076025      -0.10134976
O        9.11923383      11.12568184       9.13260140      -0.00541714      -0.00394006       0.00778438      -0.37160282
O        9.84548955       9.58140960      10.59970634      -0.00700423      -0.00063039      -0.01454156      -0.25257868
H       11.16743149       9.63699844       9.00354532       0.00476054       0.00777666      -0.00120753       0.06916338
H       11.85941062      11.80239866       9.90322378       0.01197208      -0.01054241      -0.00606045       0.07119884
H        7.96543070      10.14604740      10.49145148      -0.00240767       0.00591463      -0.00005551       0.03302130
H       11.70333909       8.80812188      10.51108834       0.00587458      -0.00516571       0.00156802       0.07625919
H       12.15069123      11.04634445      11.56488572      -0.00704436       0.00374036      -0.01402130       0.05997214
10
Properties=species:S:1:pos:R:3:forces:R:3:charge:R:1 energy:=T -17.028763043077=T gnorm:=T 0.000592469105=T xtb:=T 6.7.1=T (edcfbbe)=T energy=-462.8192734834191 free_energy=-462.8192734834191 dipole="0.24741435313366567 -0.24642168000144105 0.30027020783672215" pbc="F F F"
C       11.20369411       9.75104903      10.12725812       0.00798256       0.00059853      -0.00236329       0.07379055
C        8.91928831      10.36807125       9.96240801      -0.00410183       0.00308134      -0.00902585       0.34152536
C       11.87981470      10.97740049      10.56218476       0.00886889       0.00323240       0.01010695      -0.10164405
O        9.08216029      11.02548618       8.97783936      -0.01206168      -0.01452559       0.00680458      -0.37283049
O        9.82660595       9.69013775      10.62961557      -0.01216336       0.00366660      -0.00082525      -0.25137741
H       11.13708037       9.70338771       9.03332784       0.00141141       0.00858972       0.00042951       0.07655200
H       11.64974021      11.90659067      10.07694834      -0.00297081      -0.00517066      -0.00147135       0.06922917
H        7.94335768      10.22673320      10.46216858      -0.00322719       0.00463719      -0.00464240       0.03282176
H       11.66745939       8.85068893      10.53142572       0.00316376      -0.00175398       0.00157324       0.07119666
H       12.45558397      10.99231995      11.46647567       0.01309826      -0.00235555      -0.00058615       0.06073644
10
Properties=species:S:1:pos:R:3:forces:R:3:charge:R:1 energy:=T -17.028763043077=T gnorm:=T 0.000592469105=T xtb:=T 6.7.1=T (edcfbbe)=T energy=-462.82762952477543 free_energy=-462.82762952477543 dipole="0.25583507808248934 -0.2228129447296965 0.31937832087388224" pbc="F F F"
C       11.18072249       9.81883028      10.15528805       0.00886519       0.00307299      -0.00235073       0.07470365
C        8.89283263      10.39331252       9.91902463      -0.00268626       0.00656193      -0.02077958       0.34120912
C       11.88695994      11.02826328      10.58750359       0.00614468      -0.00027757       0.00315724      -0.10504697
O        9.04897317      10.93730105       8.86597815      -0.01204924      -0.01845154       0.01118044      -0.37414592
O        9.80696927       9.79742886      10.65260578      -0.01001844       0.00902003       0.00693775      -0.24938184
H       11.10888086       9.77615549       9.05780254      -0.00075338       0.00498490      -0.00128255       0.08339370
H       11.53616313      11.98566667      10.25262228      -0.00668965      -0.00326398       0.00759354       0.06604476
H        7.91982899      10.30498456      10.43534757      -0.00358801       0.00224016      -0.00513850       0.03261294
H       11.63123491       8.90622921      10.54573234       0.00252675       0.00165448       0.00164357       0.07010190
H       12.66397433      10.98539596      11.32312837       0.01824837      -0.00554141      -0.00096117       0.06050868
10
Properties=species:S:1:pos:R:3:forces:R:3:charge:R:1 energy:=T -17.028763043077=T gnorm:=T 0.000592469105=T xtb:=T 6.7.1=T (edcfbbe)=T energy=-462.83651917520814 free_energy=-462.83651917520814 dipole="0.26177127950321555 -0.19414356925380574 0.3318472217721937" pbc="F F F"
C       11.15180165       9.91135603      10.17762324       0.00287131       0.00363377       0.00017711       0.07587454
C        8.86146973      10.43096864       9.88208776      -0.00507039       0.00321838      -0.01776982       0.34065011
C       11.89583397      11.09633871      10.61240108       0.00810513       0.00024884      -0.00066216      -0.10921574
O        9.00738920      10.84416577       8.76950696      -0.00828088      -0.01291750       0.00617437      -0.37523267
O        9.78575656       9.93385508      10.67518392      -0.00696436       0.01022969       0.00990996      -0.24679811
H       11.07560020       9.87047706       9.07713646      -0.00048959       0.00123353      -0.00235770       0.08816867
H       11.48589511      12.07002738      10.42598762      -0.00376076      -0.00218646       0.01112248       0.06340754
H        7.89267328      10.40031480      10.41160068      -0.00224562      -0.00089927      -0.00386657       0.03283168
H       11.58630410       8.98440091      10.55462581       0.00187280       0.00074972      -0.00106002       0.07056510
H       12.81068559      11.00797984      11.16057571       0.01396236      -0.00331072      -0.00166764       0.05974886
10
Properties=species:S:1:pos:R:3:forces:R:3:charge:R:1 energy:=T -17.028763043077=T gnorm:=T 0.000592469105=T xtb:=T 6.7.1=T (edcfbbe)=T energy=-462.8428718591736 free_energy=-462.8428718591736 dipole="0.2642176827452658 -0.15555953752571147 0.3413999500559777" pbc="F F F"
C       11.12346608      10.02046612      10.18692282      -0.00209275       0.00329757       0.00219442       0.07641881
C        8.82638422      10.47420318       9.85311780      -0.00557210      -0.00148432      -0.00515504       0.34011965
C       11.91358248      11.17066096      10.63250996       0.00803294       0.00016247      -0.00242358      -0.11247523
O        8.95458648      10.74467179       8.69527513      -0.00331087      -0.00734599      -0.00239160      -0.37591005
O        9.76669308      10.09270478      10.69088994      -0.00583865       0.00712979       0.00487099      -0.24466294
H       11.04063586       9.98796501       9.08457536      -0.00024952      -0.00006722       0.00045093       0.09100729
H       11.49395904      12.15518639      10.56649615       0.00016022       0.00058948       0.00973691       0.06217632
H        7.86434343      10.50057346      10.39412919      -0.00022974      -0.00080348      -0.00225674       0.03348644
H       11.53338982       9.07365311      10.54583704       0.00289059       0.00167289      -0.00257707       0.07080231
H       12.89411011      11.04186153      11.04116766       0.00620987      -0.00315118      -0.00244923       0.05903739
10
Properties=species:S:1:pos:R:3:forces:R:3:charge:R:1 energy:=T -17.028763043077=T gnorm:=T 0.000592469105=T xtb:=T 6.7.1=T (edcfbbe)=T energy=-462.84690602494857 free_energy=-462.84690602494857 dipole="0.26438590317711674 -0.11006057326094197 0.3476486173358417" pbc="F F F"
C       11.09217449      10.15213540      10.18580655      -0.00063746       0.00302588       0.00294360       0.07692917
C        8.78771253      10.53224533       9.82540052      -0.00466942      -0.00249900       0.00815460       0.33957016
C       11.93239475      11.25759201      10.65169856       0.00299055      -0.00044304      -0.00202247      -0.11536754
O        8.89844536      10.65059568       8.64044828      -0.00037958      -0.00335248      -0.01121439      -0.37635778
O        9.74445667      10.27779745      10.69288898      -0.00200673       0.00366520      -0.00100208      -0.24287910
H       11.00735156      10.13422325       9.08186133       0.00094707       0.00038017       0.00433304       0.09273244
H       11.52630344      12.24829680      10.69969360       0.00240083      -0.00095709       0.00476639       0.06213430
H        7.83223836      10.61743759      10.37105120       0.00002489      -0.00011474      -0.00044610       0.03417760
H       11.46958527       9.18201319      10.52270737       0.00061970       0.00142203      -0.00351639       0.07065970
H       12.94542507      11.08587017      10.95068735       0.00071016      -0.00112693      -0.00199619       0.05840105
10
Properties=species:S:1:pos:R:3:forces:R:3:charge:R:1 energy:=T -17.009358422710=T gnorm:=T 0.000568633201=T xtb:=T 6.7.1=T (edcfbbe)=T energy=-462.8482180641674 free_energy=-462.8482180641674 dipole="0.26381432524292187 -0.07171155874951388 0.34723513588205784" pbc="F F F"
C       11.05813367      10.29514171      10.18038034      -0.00157910      -0.00027699       0.00095239       0.07795407
C        8.75085982      10.61539813       9.79707346       0.00113124      -0.00023849      -0.01358197       0.33888550
C       11.93938237      11.35461120      10.67588079       0.00580368      -0.00158969      -0.01133854      -0.11791927
O        8.85444477      10.61037046       8.60513780      -0.00154172      -0.00142252       0.01984093      -0.37688544
O        9.71623567      10.46543205      10.67992916      -0.00020933       0.00132419      -0.00423511      -0.24120308
H       10.98375777      10.29571958       9.07479128      -0.00005482      -0.00010450       0.00026777       0.09308433
H       11.55448224      12.34319570      10.82394636      -0.00156525       0.00069834       0.00535019       0.06291455
H        7.79776892      10.74754044      10.33688158       0.00121368       0.00074809      -0.00198076       0.03465043
H       11.40102187       9.30301627      10.49486525       0.00028579       0.00000020      -0.00011752       0.07061131
H       12.97159578      11.15092968      10.87160050      -0.00348418       0.00086136       0.00484261       0.05790760
