10
 energy: -17.009358422710 gnorm: 0.000568633201 xtb: 6.7.1 (edcfbbe)
C           11.05813366837173       10.29514171136395       10.18038033753681
C            8.75085982446724       10.61539812885996        9.79707346334440
C           11.93938236936843       11.35461120213099       10.67588079458977
O            8.85444476752512       10.61037046100199        8.60513779666197
O            9.71623566639120       10.46543205050845       10.67992916117008
H           10.98375776826582       10.29571958271738        9.07479128096339
H           11.55448223504063       12.34319570155974       10.82394636171827
H            7.79776891812002       10.74754044265991       10.33688157917928
H           11.40102186645623        9.30301626694016       10.49486525096382
H           12.97159577799361       11.15092968125756       10.87160050287223
