10
 energy: -17.028763043077 gnorm: 0.000592469105 xtb: 6.7.1 (edcfbbe)
C           11.23748265742346        9.24276695676861       10.03224687966060
C            9.13357384731375       10.01558250648716       10.06108179710344
C           11.25228099953757       10.75324592992800       10.32454987051346
O            9.90152582322412       11.14746093891916       10.18810900110450
O            9.88539320917095        8.87285648216424       10.18870841437170
H           11.56084827483071        9.02915215475204        9.00521788622369
H           11.86596456012728       11.31779753877490        9.61955130567030
H            8.19842061173909       10.01104105791378       10.60306487287803
H           11.84025984734937        8.66072055962416       10.73086200951241
H           11.58261862728370       10.96957915566795       11.34835293996185
