4
Properties=species:S:1:pos:R:3:forces:R:3:charge:R:1 reactant=T energy=-192.55179926474145 free_energy=-192.55179926474145 dipole="0.4037479098856526 -0.11130699271899369 -9.222966430603841e-16" pbc="F F F"
C        0.66395665       0.16260162       0.00000000      -5.78918153       0.95428166      -0.00000000      -0.08487985
O        1.89127365       0.16260162       0.00000000       4.72557476      -0.53149962       0.00000000      -0.22859143
H        0.07181165       1.10200562       0.00000000       1.29680693       0.64965565       0.00000000       0.01033880
H        2.37127365      -0.66878276      -0.00000000      -0.23320016      -1.07243768      -0.00000000       0.30313247
4
Properties=species:S:1:pos:R:3:forces:R:3:charge:R:1 reactant=T energy=-193.0151784260624 free_energy=-193.0151784260624 dipole="0.36057314787309186 -0.129595341371805 6.841325271802444e-07" pbc="F F F"
C        0.48923790       0.12384650       0.00000083       0.00368623      -0.00452281      -0.00000008      -0.08254530
O        1.79367775       0.16197471       0.00000246       0.01106793       0.00786023      -0.00000013      -0.25635915
H        0.16747213       1.19054964      -0.00000150      -0.00061077      -0.00363996       0.00000010       0.03378576
H        2.17650612      -0.73539268       0.00000451      -0.01414339       0.00030254       0.00000010       0.30511869
4
Properties=species:S:1:pos:R:3:forces:R:3:charge:R:1 reactant=T energy=-193.01513908951532 free_energy=-193.01513908951532 dipole="0.3498975600097309 -0.1575014703088592 1.7399578263045289e-06" pbc="F F F"
C        0.38851097       0.17198100       0.00000104       0.01135018      -0.00540260       0.00000014      -0.08252738
O        1.69186652       0.10690437       0.00000555       0.01834514       0.01316858       0.00000013      -0.25636175
H        0.15376854       1.26106715      -0.00000371      -0.00979611      -0.00173481      -0.00000012       0.03391761
H        2.00421893      -0.81722590       0.00001000      -0.01989921      -0.00603118      -0.00000015       0.30497153
4
Properties=species:S:1:pos:R:3:forces:R:3:charge:R:1 reactant=T energy=-192.92650889285653 free_energy=-192.92650889285653 dipole="0.2745333921983881 -0.1934599924617992 3.600815736535446e-06" pbc="F F F"
C        0.37781846       0.22723321       0.00000036      -0.51211014       0.15187290       0.00000289      -0.08735443
O        1.67490728       0.06981854       0.00000653      -0.59140371      -0.24513583       0.00000950      -0.26313535
H        0.15639064       1.30611471      -0.00000500       0.15196780       0.38970757      -0.00000935       0.02803488
H        1.74530499      -0.89377838       0.00001582       0.95154605      -0.29644464      -0.00000304       0.32245490
4
Properties=species:S:1:pos:R:3:forces:R:3:charge:R:1 reactant=T energy=-192.0927334311332 free_energy=-192.0927334311332 dipole="0.12427375576764911 -0.21636795116796456 5.069613115405516e-06" pbc="F F F"
C        0.48509096       0.19564803       0.00000069      -1.51485382       0.78217619      -0.00001147      -0.09449874
O        1.80840106       0.12031435       0.00000430      -1.49258481      -1.61456228       0.00002796      -0.31665917
H        0.12552227       1.22438323      -0.00000352       0.15844080       0.98420416      -0.00001321       0.02112604
H        1.53345420      -0.83104926       0.00001626       2.84899784      -0.15181806      -0.00000328       0.39003187
4
Properties=species:S:1:pos:R:3:forces:R:3:charge:R:1 reactant=T energy=-191.29176848361672 free_energy=-191.29176848361672 dipole="-0.17002216062220907 -0.24378304831814443 5.083287145548684e-06" pbc="F F F"
C        0.59389943       0.13946429       0.00000180       0.56300417      -0.19070026       0.00001392      -0.04261079
O        1.91280695       0.23473002       0.00000266       0.42167409       0.58233532      -0.00000813      -0.40416090
H        0.11554214       1.15457368      -0.00000288      -0.04319195      -0.34533424      -0.00000168       0.05170992
H        1.33076803      -0.81944590       0.00001615      -0.94148630      -0.04630083      -0.00000410       0.39506177
4
Properties=species:S:1:pos:R:3:forces:R:3:charge:R:1 reactant=T energy=-193.2277143961917 free_energy=-193.2277143961917 dipole="-0.46750712211246226 -0.17834938185578636 3.3623506099817443e-06" pbc="F F F"
C        0.75413225       0.13328783       0.00000331       3.43611280      -0.12642243       0.00002884       0.09750193
O        1.97134294       0.39576755      -0.00000033       1.26267042       3.45960269      -0.00005486      -0.37663453
H        0.10787701       1.07303910      -0.00000241      -0.19139672      -1.76338072       0.00000857       0.08770185
H        1.11997787      -0.89275766       0.00001716      -4.50738649      -1.56979954       0.00001745       0.19143074
4
Properties=species:S:1:pos:R:3:forces:R:3:charge:R:1 reactant=T energy=-194.97884088653012 free_energy=-194.97884088653012 dipole="-0.4733948509330155 -0.16001174930400833 4.031201177878924e-06" pbc="F F F"
C        0.90802268       0.16300113       0.00000418       1.21547105       0.24321406       0.00000603       0.16555606
O        2.04649125       0.53691772      -0.00000474       0.62520083       1.08220215      -0.00002141      -0.29726261
H        0.10019328       0.93700462      -0.00000085      -0.07772393      -1.06619594       0.00000890       0.06128361
H        0.89593240      -0.92771304       0.00001918      -1.76294795      -0.25922027       0.00000648       0.07042294
4
Properties=species:S:1:pos:R:3:forces:R:3:charge:R:1 reactant=T energy=-195.25925993153396 free_energy=-195.25925993153396 dipole="-0.46380650148752894 -0.14518327773895273 6.358036799591032e-06" pbc="F F F"
C        0.96643677       0.17679098       0.00000488      -0.02097638       0.00080137      -0.00000107       0.18375409
O        2.10404560       0.53271175      -0.00001076      -0.00669478       0.00067890       0.00000047      -0.26753042
H        0.11714186       0.88072988       0.00000171       0.01188974       0.02165678      -0.00000002       0.04183950
H        0.67046329      -0.88536990       0.00002352       0.01578143      -0.02313705       0.00000062       0.04193683
4
Properties=species:S:1:pos:R:3:forces:R:3:charge:R:1 reactant=T energy=-195.25931603947416 free_energy=-195.25931603947416 dipole="-0.4781302102620191 -0.0871414401154836 5.792628549756028e-06" pbc="F F F"
C        0.86394823       0.17182974       0.00000658      -0.01185651      -0.00054632      -0.00000069       0.18360387
O        2.03654026       0.38547186      -0.00000765       0.01472478       0.01266213      -0.00000008      -0.26782382
H        0.10851369       0.97579493      -0.00000070       0.00694329       0.00363951       0.00000014       0.04207803
H        0.44319269      -0.84730106       0.00002799      -0.00981156      -0.01575533       0.00000063       0.04214192
4
Properties=species:S:1:pos:R:3:forces:R:3:charge:R:1 reactant=T energy=-195.25932194037978 free_energy=-195.25932194037978 dipole="-0.48487430429000955 -0.03774290138965427 5.0508401398823585e-06" pbc="F F F"
C        0.76418569       0.16705874       0.00000825       0.01620128      -0.00224233      -0.00000039       0.18346162
O        1.95279701       0.25964534      -0.00000415      -0.00706804       0.00764076       0.00000001      -0.26800593
H        0.09578613       1.04458466      -0.00000280       0.00203300      -0.00049765       0.00000009       0.04227404
H        0.24181756      -0.80417133       0.00003166      -0.01116624      -0.00490078       0.00000029       0.04227027
4
Properties=species:S:1:pos:R:3:forces:R:3:charge:R:1 product=T energy=-195.20694325546998 free_energy=-195.20694325546998 dipole="-0.5180312895514151 2.6418642144052596e-10 3.042133231136341e-06" pbc="F F F"
C        0.66395665       0.16260162       0.00000000       2.30823213      -0.00000001      -0.00000310       0.17345685
O        1.89127365       0.16260162       0.00000000      -2.71444494       0.00000000       0.00004229      -0.27757393
H        0.07181165       1.10200562       0.00000000       0.20310640      -0.30779470       0.00002979       0.05205854
H        0.07181165      -0.77680238       0.00003900       0.20310641       0.30779471      -0.00006897       0.05205854
