 Entering Gaussian System
 *********************************************
 Gaussian 98:
 frequency output generated by the xtb code
 *********************************************
                         Standard orientation:
 --------------------------------------------------------------------
  Center     Atomic     Atomic              Coordinates (Angstroms)
  Number     Number      Type              X           Y           Z
 --------------------------------------------------------------------
    1          6             0       -0.405199   -0.304127   -0.000005
    2          8             0        0.676507    0.114707    0.000000
    3          1             0       -1.496531    1.129824   -0.000005
    4          1             0       -1.484330   -0.222719    0.000034
 --------------------------------------------------------------------
     1 basis functions        1 primitive gaussians
     1 alpha electrons        1 beta electrons

 Harmonic frequencies (cm**-1), IR intensities (km*mol⁻¹),
 Raman scattering activities (A**4/amu), Raman depolarization ratios,
 reduced masses (AMU), force constants (mDyne/A) and normal coordinates:
                      1                      2                      3
                        a                      a                      a 
 Frequencies -- -1369.8162               783.2143               841.0907
 Red. masses --     2.9250                 2.9237                 4.5242
 Frc consts  --     0.0000                 0.0000                 0.0000
 IR Inten    --   376.7537                41.5762               103.4623
 Raman Activ --     0.0000                 0.0000                 0.0000
 Depolar     --     0.0000                 0.0000                 0.0000
 Atom AN      X      Y      Z        X      Y      Z        X      Y      Z
   1   6    -0.18   0.36   0.00     0.00   0.00   0.37     0.02  -0.39   0.00
   2   8     0.05  -0.08  -0.00     0.00  -0.00  -0.16    -0.23   0.26  -0.00
   3   1     0.37  -0.08  -0.00    -0.00   0.00   0.24     0.82   0.17   0.00
   4   1     0.06  -0.83   0.00    -0.00  -0.00  -0.88     0.02   0.14  -0.00
                      4                      5                      6
                        a                      a                      a 
 Frequencies --  1423.8103              1929.1385              2887.9990
 Red. masses --     1.9633                12.5579                 2.2954
 Frc consts  --     0.0000                 0.0000                 0.0000
 IR Inten    --  1247.1874               538.3078                 5.1522
 Raman Activ --     0.0000                 0.0000                 0.0000
 Depolar     --     0.0000                 0.0000                 0.0000
 Atom AN      X      Y      Z        X      Y      Z        X      Y      Z
   1   6     0.19  -0.17  -0.00     0.61   0.31   0.00    -0.32  -0.07   0.00
   2   8    -0.13   0.01   0.00    -0.61  -0.24  -0.00     0.06   0.04   0.00
   3   1    -0.25   0.86  -0.00     0.05  -0.16   0.00    -0.05  -0.03   0.00
   4   1     0.10  -0.31   0.00     0.28   0.05  -0.00     0.93   0.09  -0.00
