 Entering Gaussian System
 *********************************************
 Gaussian 98:
 frequency output generated by the xtb code
 *********************************************
                         Standard orientation:
 --------------------------------------------------------------------
  Center     Atomic     Atomic              Coordinates (Angstroms)
  Number     Number      Type              X           Y           Z
 --------------------------------------------------------------------
    1          6             0        0.668256    0.144020   -0.000001
    2          8             0       -0.631792   -0.130752    0.000000
    3          1             0        1.285769   -0.782395   -0.000001
    4          1             0       -0.240968    0.964297    0.000000
 --------------------------------------------------------------------
     1 basis functions        1 primitive gaussians
     1 alpha electrons        1 beta electrons

 Harmonic frequencies (cm**-1), IR intensities (km*mol⁻¹),
 Raman scattering activities (A**4/amu), Raman depolarization ratios,
 reduced masses (AMU), force constants (mDyne/A) and normal coordinates:
                      1                      2                      3
                        a                      a                      a 
 Frequencies -- -2320.4590               441.4955              1259.0119
 Red. masses --     2.1504                 2.2846                 6.3659
 Frc consts  --     0.0000                 0.0000                 0.0000
 IR Inten    --  1092.7620               234.6336               112.8835
 Raman Activ --     0.0000                 0.0000                 0.0000
 Depolar     --     0.0000                 0.0000                 0.0000
 Atom AN      X      Y      Z        X      Y      Z        X      Y      Z
   1   6    -0.21   0.08   0.00     0.00  -0.00   0.34     0.36  -0.17  -0.00
   2   8    -0.05  -0.19   0.00     0.00   0.00   0.04    -0.49   0.07   0.00
   3   1     0.04   0.12   0.00    -0.00   0.00  -0.65     0.67   0.39  -0.00
   4   1     0.88   0.35  -0.00    -0.00   0.00  -0.68     0.04  -0.08  -0.00
                      4                      5                      6
                        a                      a                      a 
 Frequencies --  1433.5009              2270.0512              2717.2299
 Red. masses --    10.0431                 1.6404                 1.8940
 Frc consts  --     0.0000                 0.0000                 0.0000
 IR Inten    --    80.7195                86.7237               109.5842
 Raman Activ --     0.0000                 0.0000                 0.0000
 Depolar     --     0.0000                 0.0000                 0.0000
 Atom AN      X      Y      Z        X      Y      Z        X      Y      Z
   1   6    -0.61  -0.34   0.00    -0.15   0.09   0.00     0.13  -0.25  -0.00
   2   8     0.45   0.21  -0.00     0.07   0.12  -0.00     0.04  -0.00  -0.00
   3   1     0.43   0.25  -0.00    -0.06   0.12   0.00    -0.55   0.78   0.00
   4   1    -0.13   0.09   0.00     0.33  -0.91  -0.00    -0.06   0.08   0.00
