3
Properties=species:S:1:pos:R:3:forces:R:3:charge:R:1 0=T 1=T energy=-149.77326792666963 free_energy=-149.77326792666963 dipole="0.013553374816123172 0.5443393353793342 0.037173920788666215" pbc="F F F"
H        9.99804457      11.95689515       9.76253819       0.00024345       0.01139560       0.00085805       0.08262891
C        9.97174990      10.90150386       9.69049681       0.00020081       0.00495734       0.00018399       0.07530982
N        9.94351011       9.76697172       9.61300031      -0.00044426      -0.01635294      -0.00104204      -0.15793873
3
Properties=species:S:1:pos:R:3:forces:R:3:charge:R:1 0=T 1=T energy=-149.77325200290272 free_energy=-149.77325200290272 dipole="0.052355922981936524 0.5422014149659646 0.03486446895451384" pbc="F F F"
H       10.02779309      11.90754074       9.87588880       0.00836347       0.00886050       0.00015287       0.08265303
C        9.92938477      10.85609095       9.80810548      -0.01546573      -0.00979744       0.00017578       0.07528433
N        9.81865766       9.72616029       9.73553889       0.00710227       0.00093693      -0.00032864      -0.15793736
3
Properties=species:S:1:pos:R:3:forces:R:3:charge:R:1 0=T 1=T energy=-149.77327028535856 free_energy=-149.77327028535856 dipole="0.11663790684802075 0.5323296116002338 0.03060502717588355" pbc="F F F"
H       10.10174039      11.83325442      10.00981030       0.00065058       0.00428134       0.00026184       0.08263962
C        9.87545966      10.80106477       9.95047352       0.00020449      -0.00160606      -0.00012319       0.07529106
N        9.63241506       9.69153805       9.88668050      -0.00085507      -0.00267528      -0.00013865      -0.15793068
3
Properties=species:S:1:pos:R:3:forces:R:3:charge:R:1 0=T 1=T energy=-149.7418787816451 free_energy=-149.7418787816451 dipole="0.1823027156638779 0.511941815383974 0.025529634398951822" pbc="F F F"
H       10.23444374      11.71058076      10.13473627      -0.14941056       0.41004536       0.03683109       0.08311773
C        9.76457541      10.77171754      10.09543308       0.51039895      -0.22005826      -0.04362401       0.07556490
N        9.44710830       9.68231939      10.03719890      -0.36098840      -0.18998709       0.00679291      -0.15868263
3
Properties=species:S:1:pos:R:3:forces:R:3:charge:R:1 0=T 1=T energy=-148.02889582939218 free_energy=-148.02889582939218 dipole="0.12212890128268958 0.4620542791456161 0.025394258357341666" pbc="F F F"
H       10.32660032      11.44277288      10.10617174      -0.42709325       2.98819371       0.23171516       0.14693851
C        9.42636415      10.92410598      10.11998686       2.47867072      -0.74111170      -0.18905144       0.03506006
N        9.69874708       9.80324613      10.02685029      -2.05157747      -2.24708202      -0.04266373      -0.18199857
3
Properties=species:S:1:pos:R:3:forces:R:3:charge:R:1 0=T 1=T energy=-146.6315960767256 free_energy=-146.6315960767256 dipole="0.35578806690306114 0.27685750044890994 -0.0004562436481647058" pbc="F F F"
H       10.36604435      11.16166699      10.08552802       0.37020803      -0.47760437      -0.05377957       0.31121934
C        9.19295721      10.99274547      10.13882226      -0.61997748      -0.06424464       0.02990844      -0.11340280
N        9.89141784      10.01443816      10.03198133       0.24976945       0.54184901       0.02387113      -0.19781654
3
Properties=species:S:1:pos:R:3:forces:R:3:charge:R:1 0=T 1=T energy=-147.56101306613817 free_energy=-147.56101306613817 dipole="0.4294992528077229 0.20324385142073373 -0.009668741478755396" pbc="F F F"
H       10.57623215      11.02314143      10.06556398       1.40427760      -0.92506853      -0.14227667       0.25264214
C        8.94008850      10.90332838      10.14795634      -1.67729438      -0.58726008       0.05213166      -0.08902450
N        9.93254823      10.24085160      10.04679844       0.27301678       1.51232861       0.09014502      -0.16361764
3
Properties=species:S:1:pos:R:3:forces:R:3:charge:R:1 0=T 1=T energy=-148.52109421034666 free_energy=-148.52109421034666 dipole="0.5269775443351649 0.13219616776005502 -0.020020810003336047" pbc="F F F"
H       10.76065540      10.92860648      10.05175094       1.13153539      -0.59795962      -0.10437965       0.19346591
C        8.78470830      10.78800914      10.15154108      -0.93879185      -0.66292640       0.00590989      -0.09900737
N        9.90002788      10.44727631      10.06596850      -0.19274355       1.26088601       0.09846976      -0.09445854
3
Properties=species:S:1:pos:R:3:forces:R:3:charge:R:1 0=T 1=T energy=-148.90504473282957 free_energy=-148.90504473282957 dipole="0.5609302387340236 -0.06574440210035036 -0.03568356647361538" pbc="F F F"
H       10.82517207      10.56791390      10.10575401      -0.00202421       0.00480338       0.00044913       0.18256839
C        8.68778764      10.81613336      10.24156269      -0.00327792       0.00430223       0.00048364      -0.10492337
N        9.83645379      10.68518638      10.16874876       0.00530214      -0.00910561      -0.00093277      -0.07764502
3
Properties=species:S:1:pos:R:3:forces:R:3:charge:R:1 0=T 1=T energy=-148.90502628613663 free_energy=-148.90502628613663 dipole="0.5431158231253881 -0.15361802929248375 -0.04081853973299223" pbc="F F F"
H       10.71849362      10.33148945      10.28496173      -0.00560825      -0.00628019      -0.00012203       0.18256271
C        8.65030880      10.92041737      10.44067169      -0.00734283      -0.00465831       0.00008666      -0.10492484
N        9.76035813      10.60010253      10.35680637       0.01295108       0.01093850       0.00003537      -0.07763787
3
Properties=species:S:1:pos:R:3:forces:R:3:charge:R:1 0=T 1=T energy=-148.90504365322002 free_energy=-148.90504365322002 dipole="0.5237531282403619 -0.20978799428202957 -0.04365908607931938" pbc="F F F"
H       10.63193040      10.17742589      10.40982698      -0.00316282      -0.00391592      -0.00009044       0.18257680
C        8.63735672      10.97895267      10.57626895      -0.00193615      -0.00368361      -0.00014312      -0.10492016
N        9.70805858      10.54590352      10.48673150       0.00509897       0.00759952       0.00023356      -0.07765663
3
Properties=species:S:1:pos:R:3:forces:R:3:charge:R:1 0=T 1=T energy=-148.9050549067727 free_energy=-148.9050549067727 dipole="0.5018655837797841 -0.2573670736981108 -0.04578838703232614" pbc="F F F"
H       10.53275287      10.03156538      10.55660866       0.00358625      -0.00165096      -0.00008125       0.18257977
C        8.62066549      11.01202877      10.73093679      -0.00537500       0.00291794       0.00070148      -0.10492728
N        9.64810846      10.48528671      10.63739533       0.00178875      -0.00126698      -0.00062023      -0.07765249
