7
Properties=species:S:1:pos:R:3:forces:R:3:charge:R:1 energy:=T -10.356706262563=T gnorm:=T 0.000487149030=T xtb:=T 6.7.1=T (edcfbbe)=T energy=-281.82033204827064 free_energy=-281.82033204827064 dipole="0.6000459137531081 0.23787265875287983 0.00012133206476966836" pbc="F F F"
H       11.46899539      10.77683042       9.71287266       0.00591489       0.00379660      -0.00724872       0.07386362
H       10.94103082       9.32008523      10.59122618      -0.00092801       0.00225733      -0.00016964       0.07351685
H        9.50316505      12.05096807      10.59174718      -0.00477603       0.00345974      -0.00186075       0.01655853
H       11.46859741      10.77681205      11.46986508       0.00517361       0.00396485       0.00702222       0.07385765
C       10.94384977      10.40677595      10.59124275      -0.00858342      -0.01444779      -0.00133581      -0.13917665
C        9.54801698      10.94277913      10.59085899       0.00619038       0.00417434       0.00539382       0.22024592
O        8.54734703      10.28546237      10.59072322      -0.00299142      -0.00320507      -0.00180111      -0.31886591
7
Properties=species:S:1:pos:R:3:forces:R:3:charge:R:1 energy:=T -10.356706262563=T gnorm:=T 0.000487149030=T xtb:=T 6.7.1=T (edcfbbe)=T energy=-281.8202480957886 free_energy=-281.8202480957886 dipole="0.6316638139541962 0.09294230753175864 0.09176135453108263" pbc="F F F"
H       10.43575960      10.83913103       8.90679787       0.00191739       0.00357170       0.00915151       0.07452739
H        9.54356277       9.38621166       9.41751396      -0.00284843      -0.00433127      -0.00159878       0.07357459
H        8.69599502      12.30051568       9.97932357      -0.00048299      -0.00309044      -0.00061383       0.01659145
H       10.27524832      10.47844452      10.62033980       0.00424160       0.00190815      -0.00283188       0.07308782
C        9.76842326      10.42141207       9.65889180      -0.00225558      -0.00122590      -0.00090005      -0.13911218
C        8.51768691      11.23930156       9.70995393       0.00657617       0.00478441      -0.00765047       0.22022511
O        7.41195400      10.83768146       9.48749727      -0.00714816      -0.00161666       0.00444350      -0.31889419
7
Properties=species:S:1:pos:R:3:forces:R:3:charge:R:1 energy:=T -10.356706262563=T gnorm:=T 0.000487149030=T xtb:=T 6.7.1=T (edcfbbe)=T energy=-281.8197709680324 free_energy=-281.8197709680324 dipole="0.5188749842681685 -0.2848341893326595 0.2551755602497914" pbc="F F F"
H        9.55773055      10.47557985       8.44329072       0.00394116      -0.00245150       0.01094370       0.07566759
H        8.00190803       9.64784896       8.20514455      -0.00143902      -0.00023346      -0.00399758       0.07369388
H        8.36634555      12.35323874       9.64536077      -0.00028808      -0.00552114      -0.01066652       0.01657087
H        8.66358052       9.89691940       9.84251843       0.00157183      -0.00180407      -0.00173145       0.07190160
C        8.55791994      10.32492747       8.84776519       0.00227532       0.00252772      -0.00055600      -0.13910717
C        7.87226690      11.65025128       8.94341197       0.00687296       0.00206016       0.00298558       0.22022622
O        6.88957880      11.97157923       8.33971782      -0.01293416       0.00542228       0.00302228      -0.31895300
7
Properties=species:S:1:pos:R:3:forces:R:3:charge:R:1 energy:=T -10.356706262563=T gnorm:=T 0.000487149030=T xtb:=T 6.7.1=T (edcfbbe)=T energy=-281.81845103634714 free_energy=-281.81845103634714 dipole="-0.2616103316328664 -0.5497134432706899 0.20668666150898904" pbc="F F F"
H        8.37824945       9.53948610       8.55908457      -0.01169408       0.00302935       0.01167199       0.07706422
H        7.52232215      10.62658704       7.44493753       0.00718452      -0.00303824      -0.01234895       0.07390728
H        8.67995265      11.49704323      10.16819539       0.01184313      -0.00867952      -0.01922786       0.01644422
H        6.85609302      10.26522074       9.06042862      -0.00215876      -0.00491289      -0.00324121       0.07027174
C        7.76424994      10.43654303       8.48683900      -0.00050732      -0.00390033       0.00804246      -0.13915811
C        8.52380997      11.58354215       9.07285064      -0.01613239      -0.02431557       0.03001514       0.22034718
O        8.94741352      12.52203099       8.46274532       0.01146491       0.04181721      -0.01491157      -0.31887653
7
Properties=species:S:1:pos:R:3:forces:R:3:charge:R:1 energy:=T -10.356706262563=T gnorm:=T 0.000487149030=T xtb:=T 6.7.1=T (edcfbbe)=T energy=-281.8201263211464 free_energy=-281.8201263211464 dipole="-0.12876922131099247 -0.5635931515091225 -0.28639466064415453" pbc="F F F"
H        7.14261132      10.33831621       8.00212224      -0.00086472      -0.00674479      -0.00809076       0.07475301
H        8.82633460       9.84674237       8.11776305      -0.00099243       0.00182116      -0.00752097       0.07298205
H        7.96673492      10.47203072      10.36813553      -0.00191563       0.00557284       0.02944502       0.01654685
H        8.42149518      11.46360248       7.48502244       0.00416134       0.00982919      -0.02540883       0.07374969
C        8.15091776      10.69583774       8.20360064      -0.00169111      -0.01214108       0.00225721      -0.13931582
C        8.20564928      11.23223491       9.59747104      -0.00299691      -0.00050028      -0.00930236       0.22022373
O        8.47163348      12.35941435       9.90086149       0.00429946       0.00216296       0.01862069      -0.31893950
7
Properties=species:S:1:pos:R:3:forces:R:3:charge:R:1 energy:=T -10.356706262563=T gnorm:=T 0.000487149030=T xtb:=T 6.7.1=T (edcfbbe)=T energy=-281.81278531265366 free_energy=-281.81278531265366 dipole="0.08558900856538727 0.24368734686188456 -0.5859293031787883" pbc="F F F"
H        8.72220100      10.66252593       7.73597741       0.02145780      -0.00709536      -0.01647996       0.06677048
H        9.92328350      10.28204106       9.00461246       0.00487370       0.01359915       0.00906330       0.07472477
H        7.00149072      11.17153176       9.36238213      -0.00485510       0.01657713       0.02483453       0.01680904
H        9.39898752      11.95102864       8.72797293      -0.00576274       0.00620932      -0.02291597       0.08028064
C        9.07879436      10.90952024       8.73222899      -0.00535032      -0.02240904       0.01529486      -0.13922521
C        7.96971567      10.77112109       9.72590581      -0.00525776       0.00296084       0.03500191       0.22014058
O        8.06913253      10.29907583      10.82224766      -0.00510558      -0.00984204      -0.04479869      -0.31950028
7
Properties=species:S:1:pos:R:3:forces:R:3:charge:R:1 energy:=T -10.356706262563=T gnorm:=T 0.000487149030=T xtb:=T 6.7.1=T (edcfbbe)=T energy=-281.571795996936 free_energy=-281.571795996936 dipole="0.265589445737954 0.04696745790081206 -0.045119415188461964" pbc="F F F"
H        9.57097868      12.17496117       8.72909622       0.00756281      -0.00116476       0.00346112       0.04023564
H       10.13972667       9.48241818      10.93330252       0.01114072       0.01509581      -0.00119521       0.29845812
H        7.88173774      10.79248689       9.87183992      -0.00502149       0.00319604       0.00144234       0.04943346
H       10.90954451      11.20447930       9.52436705       0.00582809       0.00501266      -0.00101799       0.03432914
C        9.85439370      11.37668029       9.38695795      -0.00672520      -0.01363662      -0.00299347      -0.14475744
C        8.94353003      10.63785764       9.99612261      -0.00126572       0.00467748       0.00604983       0.10311659
O        9.18678737       9.61081041      10.84227087      -0.01151920      -0.01318061      -0.00574663      -0.38081551
7
Properties=species:S:1:pos:R:3:forces:R:3:charge:R:1 energy:=T -10.356706262563=T gnorm:=T 0.000487149030=T xtb:=T 6.7.1=T (edcfbbe)=T energy=-281.5717758912747 free_energy=-281.5717758912747 dipole="0.19049255101427567 0.1731626718618683 -0.09274892007223962" pbc="F F F"
H        9.65469524      12.23037407      10.45693770       0.00790859      -0.00254144       0.00433629       0.04004994
H       11.88308330       9.51425504      10.75664576       0.01043762       0.01124897      -0.00842775       0.29850944
H        9.14373285       9.95321240      11.24358088      -0.00622004       0.00577013      -0.00738364       0.04945206
H       11.40789333      11.75917258      10.20296625       0.00315393      -0.01467750       0.00243461       0.03431435
C       10.41440906      11.47479723      10.50997608      -0.01180404       0.01566245      -0.00887654      -0.14475245
C       10.13300497      10.25415346      10.93073060      -0.00969986      -0.00727127       0.01250093       0.10318480
O       11.00495126       9.22563855      11.03635218       0.00622379      -0.00819134       0.00541610      -0.38075813
7
Properties=species:S:1:pos:R:3:forces:R:3:charge:R:1 energy:=T -10.356706262563=T gnorm:=T 0.000487149030=T xtb:=T 6.7.1=T (edcfbbe)=T energy=-281.57144073019157 free_energy=-281.57144073019157 dipole="-0.05596947039891993 -0.12294601190197431 -0.2380478037296148" pbc="F F F"
H        8.40247021      11.64374875       9.37500947      -0.02959616       0.02865668      -0.01064512       0.04009726
H       11.01004196       9.46358786      10.25296073       0.00218694      -0.01886789       0.02540914       0.29900412
H        9.82215079      11.74948323      11.38932413      -0.00700215      -0.00432933      -0.00380302       0.04949835
H        9.29621395      10.14533031       8.81527253       0.01204280       0.00561045       0.01023089       0.03418444
C        9.17262991      10.92084622       9.55424024      -0.00548946       0.00216101      -0.00406000      -0.14491810
C        9.92985177      10.98334173      10.63541753      -0.01117774      -0.01052198      -0.00407857       0.10305739
O       10.92253048      10.12231082      10.95444128       0.03903578      -0.00270894      -0.01305332      -0.38092346
7
Properties=species:S:1:pos:R:3:forces:R:3:charge:R:1 energy:=T -10.356706262563=T gnorm:=T 0.000487149030=T xtb:=T 6.7.1=T (edcfbbe)=T energy=-281.5717298126286 free_energy=-281.5717298126286 dipole="-0.009177761162347073 -0.27134359087867976 -0.035752075059010326" pbc="F F F"
H        8.29918020      10.11049382      11.13771777      -0.00319379       0.01886956       0.00680226       0.04017732
H       10.37097562      10.69265554       8.34583490      -0.00858696      -0.00490796      -0.00402477       0.29846651
H        9.17744819      12.27812724      10.34369720      -0.01013609      -0.00219550       0.01739042       0.04954417
H        9.14928159       9.25688654       9.75836053       0.00916151       0.00946963      -0.00808796       0.03411622
C        8.92346420      10.17950869      10.26865865       0.01994134      -0.00019320      -0.01604854      -0.14468299
C        9.39226110      11.34216683       9.84923803      -0.02125956      -0.00548552       0.00175339       0.10313886
O       10.18322370      11.54007204       8.76987005       0.01407355      -0.01555701       0.00221520      -0.38076009
7
Properties=species:S:1:pos:R:3:forces:R:3:charge:R:1 energy:=T -10.356706262563=T gnorm:=T 0.000487149030=T xtb:=T 6.7.1=T (edcfbbe)=T energy=-281.5716076324569 free_energy=-281.5716076324569 dipole="0.06271216105180737 -0.26533785281531885 0.025883451729246238" pbc="F F F"
H       10.03968785      10.77776382      10.25734902      -0.00734927      -0.00165608       0.01547803       0.04016305
H        7.30617389      10.23602811       8.11310787      -0.02297555      -0.00623198      -0.00169099       0.29881056
H        8.57303374      12.48164859       9.24142534       0.01636826       0.01190668       0.00294431       0.04947581
H        9.06546671       9.45159961       9.44770763       0.01064437       0.00979605      -0.01264880       0.03418649
C        9.22092274      10.50452955       9.62098883       0.01028204      -0.00883168       0.00545872      -0.14479265
C        8.44211309      11.42255989       9.07624767       0.00121597       0.00991626      -0.00092498       0.10303011
O        7.39403765      11.18753723       8.25455973      -0.00818583      -0.01489927      -0.00861629      -0.38087337
7
Properties=species:S:1:pos:R:3:forces:R:3:charge:R:1 energy:=T -10.347575132809=T gnorm:=T 0.000771184179=T xtb:=T 6.7.1=T (edcfbbe)=T energy=-281.57186135349036 free_energy=-281.57186135349036 dipole="0.22962105717374087 -0.12959458599133847 0.07197807309222035" pbc="F F F"
H       10.88491625      11.88388650       9.46540787      -0.00601851      -0.00051962       0.00586667       0.04010321
H        8.74845290       9.28983585      10.51675682       0.00515118      -0.00076028       0.00102725       0.29866755
H        8.42166128      11.83079085       9.34324108      -0.00195569       0.00171304       0.00621401       0.04945645
H       10.88640452      10.21423687      10.22359339      -0.00273966       0.00528432       0.00391916       0.03414481
C       10.32436320      11.03996002       9.81754558      -0.00544738      -0.00459463      -0.00985928      -0.14477422
C        9.00449503      11.01701052       9.74938548       0.02793818       0.00063243      -0.01176877       0.10312858
O        8.20629703      10.00519969      10.15975761      -0.01692813      -0.00175525       0.00460096      -0.38072638
