7
 energy: -10.347575132809 gnorm: 0.000771184179 xtb: 6.7.1 (edcfbbe)
H           10.88491624585525       11.88388650080099        9.46540787464880
H            8.74845290163625        9.28983585436379       10.51675682395847
H            8.42166127771906       11.83079084924836        9.34324108227113
H           10.88640452435764       10.21423687079066       10.22359339121922
C           10.32436320449276       11.03996002138528        9.81754557655462
C            9.00449502510954       11.01701051954966        9.74938547592104
O            8.20629702582950       10.00519968786127       10.15975761442673
