7
Properties=species:S:1:pos:R:3:forces:R:3:charge:R:1 energy:=T -10.356706262563=T gnorm:=T 0.000487149030=T xtb:=T 6.7.1=T (edcfbbe)=T energy=-281.57144073019157 free_energy=-281.57144073019157 dipole="-0.05596947039891993 -0.12294601190197431 -0.2380478037296148" pbc="F F F"
H        8.40247021      11.64374875       9.37500947      -0.02959616       0.02865668      -0.01064512       0.04009726
H       11.01004196       9.46358786      10.25296073       0.00218694      -0.01886789       0.02540914       0.29900412
H        9.82215079      11.74948323      11.38932413      -0.00700215      -0.00432933      -0.00380302       0.04949835
H        9.29621395      10.14533031       8.81527253       0.01204280       0.00561045       0.01023089       0.03418444
C        9.17262991      10.92084622       9.55424024      -0.00548946       0.00216101      -0.00406000      -0.14491810
C        9.92985177      10.98334173      10.63541753      -0.01117774      -0.01052198      -0.00407857       0.10305739
O       10.92253048      10.12231082      10.95444128       0.03903578      -0.00270894      -0.01305332      -0.38092346
