8
Properties=species:S:1:pos:R:3:forces:R:3:charge:R:1 energy:=T -11.501264804125=T gnorm:=T 0.000245291439=T xtb:=T 6.7.1=T (edcfbbe)=T energy=-312.965356353269 free_energy=-312.965356353269 dipole="0.014255903548834513 -0.6700791992394018 3.4036343582080956e-05" pbc="F F F"
H       11.51836326       8.73522967       9.73629997       0.00020299      -0.00105310      -0.00002546       0.05381069
H        9.05229387       8.78120644       9.73611720       0.00029717      -0.00074850      -0.00004129       0.05362765
H       10.19771891      10.69964456      10.65075689      -0.00228101       0.00942225       0.00000769       0.37480154
H       11.51835479       8.73527703      11.56545294       0.00020264      -0.00104923       0.00002169       0.05381071
H        9.05228639       8.78125497      11.56561226       0.00029833      -0.00074587       0.00004469       0.05362775
C       10.94706088       8.75316436      10.65087336       0.00137055      -0.00022793       0.00000545      -0.07861020
C        9.62430663       8.78185620      10.65086725      -0.00087454       0.00178755      -0.00000982      -0.08250736
F       10.18751306      11.65005038      10.65070989       0.00078386      -0.00738517      -0.00000297      -0.42856078
8
Properties=species:S:1:pos:R:3:forces:R:3:charge:R:1 energy:=T -11.501264804125=T gnorm:=T 0.000245291439=T xtb:=T 6.7.1=T (edcfbbe)=T energy=-312.96514330462753 free_energy=-312.96514330462753 dipole="0.0033027696769418655 -0.6679002256427861 0.0006424561564058862" pbc="F F F"
H       11.51124896       8.83571640       9.60055338      -0.00045580      -0.00321119      -0.00079501       0.05379741
H        9.04446751       8.86757931       9.60390089      -0.00157332       0.00352326      -0.00247907       0.05303470
H       10.17361912      10.79340713      10.50178656       0.01120196       0.00066152       0.00589387       0.37503384
H       11.51288752       8.81631881      11.42948803       0.00115384       0.00207169       0.00094509       0.05388477
H        9.04760382       8.85045929      11.43337661      -0.00139262       0.00167942       0.00044675       0.05312611
C       10.94072012       8.84075284      10.51575727      -0.00438723       0.00287557      -0.00114835      -0.07821230
C        9.61789975       8.86367560      10.51773532       0.00557441       0.00385144      -0.00007071      -0.08306862
F       10.18674854      11.74339277      10.50217271      -0.01012124      -0.01145171      -0.00279256      -0.42759592
8
Properties=species:S:1:pos:R:3:forces:R:3:charge:R:1 energy:=T -11.501264804125=T gnorm:=T 0.000245291439=T xtb:=T 6.7.1=T (edcfbbe)=T energy=-312.96470064726657 free_energy=-312.96470064726657 dipole="-0.005407973921165041 -0.667197322533842 0.0017935481036819244" pbc="F F F"
H       11.50167457       8.94671108       9.45709969      -0.00108823      -0.00756300      -0.00109697       0.05391746
H        9.03415349       8.95934821       9.46215669      -0.00302088       0.00435239      -0.00475467       0.05276715
H       10.16002727      10.88615345      10.34674697       0.02123965       0.01199903       0.01035979       0.37506547
H       11.50392660       8.90688082      11.28560612       0.00241358       0.00294279       0.00248362       0.05404478
H        9.03926392       8.92406109      11.29134054      -0.00283047       0.00034018       0.00064363       0.05291029
C       10.93132989       8.93686814      10.37243140      -0.00241880       0.00540162      -0.00353031      -0.07810421
C        9.60845239       8.95034703      10.37537567       0.00404823       0.00693716       0.00061452      -0.08316710
F       10.18992081      11.83596701      10.34629892      -0.01834309      -0.02441017      -0.00471963      -0.42743383
8
Properties=species:S:1:pos:R:3:forces:R:3:charge:R:1 energy:=T -11.501264804125=T gnorm:=T 0.000245291439=T xtb:=T 6.7.1=T (edcfbbe)=T energy=-312.9644564957496 free_energy=-312.9644564957496 dipole="-0.009183272846917508 -0.667532583425164 0.0050679861035468335" pbc="F F F"
H       11.49314482       9.07456956       9.29894492      -0.00068129      -0.01163685      -0.00204859       0.05399778
H        9.02540651       9.05313441       9.28607960      -0.00498091       0.00411836      -0.00764317       0.05282159
H       10.16504660      10.99226652      10.16818087       0.02502595       0.03788722       0.01157702       0.37495765
H       11.48221739       9.02821297      11.12718732       0.00499414       0.00325458       0.00603371       0.05411484
H        9.01800849       9.01302361      11.11497652      -0.00465354      -0.00290055       0.00215601       0.05294901
C       10.91610428       9.05380432      10.20995761      -0.00462836       0.00845089      -0.00658976      -0.07873796
C        9.59317065       9.04814094      10.20322549       0.00633951       0.00976935       0.00148125      -0.08251083
F       10.19796282      11.94256768      10.16324229      -0.02141551      -0.04894301      -0.00496647      -0.42759208
8
Properties=species:S:1:pos:R:3:forces:R:3:charge:R:1 energy:=T -11.501264804125=T gnorm:=T 0.000245291439=T xtb:=T 6.7.1=T (edcfbbe)=T energy=-312.7635644000038 free_energy=-312.7635644000038 dipole="0.2748573147360573 -0.579486447492884 0.012235703538497393" pbc="F F F"
H       11.49728409       9.10662599       9.25036014       0.00783489       0.01499755      -0.01376438       0.04979279
H        9.02683247       9.17534738       9.20225747       0.02918480      -0.09147638      -0.00103899       0.06454413
H       10.48965661      10.90603465      10.13657146      -0.59305009       0.55637213      -0.02410584       0.37623812
H       11.46139059       9.13177283      11.07983113       0.00774924       0.00618374       0.02180977       0.04966180
H        8.98915793       9.19723390      11.02652902       0.03273066      -0.08561724      -0.00040597       0.06447239
C       10.90871555       9.16041060      10.15343625      -0.08303052      -0.36759820      -0.00714205      -0.09384494
C        9.58143442       9.15035955      10.12653146       0.08543029      -0.33589421       0.01102845      -0.06257938
F        9.90916311      11.68133206      10.11428534       0.51315073       0.30303260       0.01361901      -0.44828490
8
Properties=species:S:1:pos:R:3:forces:R:3:charge:R:1 energy:=T -11.501264804125=T gnorm:=T 0.000245291439=T xtb:=T 6.7.1=T (edcfbbe)=T energy=-311.63057029819174 free_energy=-311.63057029819174 dipole="0.24368102043834308 -0.8069521966630271 0.01242671350138828" pbc="F F F"
H       11.49423986       9.10125406       9.25911289      -0.09385994      -0.07747695       0.03245214       0.07513470
H        9.00807404       9.23559836       9.18781191      -0.03764734       0.18323199       0.00316168       0.10024778
H       10.86377036      10.56099413      10.14230764       1.40812545      -0.84579448       0.02203708       0.26369876
H       11.45326050       9.12338237      11.07547289      -0.09644219      -0.10699024      -0.02149779       0.07534152
H        8.96282879       9.25549942      11.02478476      -0.03889458       0.17835046      -0.00199368       0.10040596
C       10.95986609       9.40131652      10.15238322       0.16828406       0.72493443      -0.00434099      -0.14740623
C        9.53250469       9.37368737      10.11850331      -0.15008957       0.88240484      -0.00626327       0.03678924
F        9.58766842      11.47311504      10.10443561      -1.15947590      -0.93866005      -0.02355518      -0.50421173
8
Properties=species:S:1:pos:R:3:forces:R:3:charge:R:1 energy:=T -11.501264804125=T gnorm:=T 0.000245291439=T xtb:=T 6.7.1=T (edcfbbe)=T energy=-314.41216742839896 free_energy=-314.41216742839896 dipole="0.14479795687473487 -0.4510287111970481 0.010285099680252012" pbc="F F F"
H       11.40694242       9.04418047       9.27560131      -0.09606198      -0.08065823       0.01977820       0.04947339
H        9.02157680       9.26842256       9.22779263       0.02602675       0.05365595       0.02565633       0.05228968
H       11.33910203      10.56367063      10.16105650       0.53386046       0.02317094       0.01382521       0.07767172
H       11.37291310       9.04517198      11.05006193      -0.10213699      -0.08582508      -0.02149938       0.04936225
H        8.99166884       9.29685795      11.01806673       0.01690828       0.05597957      -0.02354856       0.05230473
C       11.00129401       9.53334221      10.15518997       0.05259970       0.15312971      -0.00872944      -0.12081035
C        9.48919876       9.68497335      10.12465884      -0.03647892       0.37881997      -0.00291844       0.10807711
F        9.24214272      11.05917996      10.09853178      -0.39471731      -0.49827283      -0.00256392      -0.26836854
8
Properties=species:S:1:pos:R:3:forces:R:3:charge:R:1 energy:=T -11.501264804125=T gnorm:=T 0.000245291439=T xtb:=T 6.7.1=T (edcfbbe)=T energy=-314.530270469125 free_energy=-314.530270469125 dipole="0.18074953912995376 -0.435499165090386 0.11776075859706876" pbc="F F F"
H       11.43809896       9.35115774       9.21013390      -0.00338122       0.03644695      -0.03007954       0.05262090
H        9.05981428       9.07683133       9.31981521       0.00020570      -0.03782376       0.01531702       0.04961313
H       11.42608283      10.51659832      10.53162718       0.01675748       0.01783025       0.05991620       0.06684151
H       11.27653523       8.79277553      10.87866675      -0.00521396      -0.04779566      -0.01631202       0.04817157
H        9.01299937       9.50119213      11.05738824       0.00996399       0.03186095       0.02374725       0.04933745
C       11.00625805       9.57828051      10.18038069      -0.00380723      -0.00803150      -0.00625792      -0.11731701
C        9.49375341       9.71274061      10.09717322      -0.01259731       0.02548974      -0.00230928       0.11134364
F        9.14776289      11.00531261       9.77367457      -0.00192744      -0.01797697      -0.04402171      -0.26061118
8
Properties=species:S:1:pos:R:3:forces:R:3:charge:R:1 energy:=T -11.501264804125=T gnorm:=T 0.000245291439=T xtb:=T 6.7.1=T (edcfbbe)=T energy=-314.5682203055199 free_energy=-314.5682203055199 dipole="0.17644884293152066 -0.4210555745059507 0.1813171690491451" pbc="F F F"
H       11.47556261       9.65129738       9.13257996      -0.00076466       0.01702277      -0.02258380       0.05710384
H        9.08721092       9.03927584       9.26719011       0.00017068      -0.02201365       0.00175064       0.04901553
H       11.38186194      10.50517020      10.67364862       0.00126054       0.01597390       0.03272050       0.06117182
H       11.23798620       8.74267168      10.63186192       0.00321859      -0.02792688      -0.00173504       0.04822657
H        8.98380852       9.70152131      10.92851389       0.00308719       0.01023808       0.01809996       0.04890708
C       10.99626212       9.66182389      10.10757757       0.00751162      -0.00700558      -0.00521649      -0.11625044
C        9.49159782       9.78198107       9.96205394      -0.02402002       0.01307778      -0.00361234       0.11187100
F        9.15610991      11.01426170       9.45084073       0.00953605       0.00063357      -0.01942344      -0.26004540
8
Properties=species:S:1:pos:R:3:forces:R:3:charge:R:1 energy:=T -11.501264804125=T gnorm:=T 0.000245291439=T xtb:=T 6.7.1=T (edcfbbe)=T energy=-314.57091574535775 free_energy=-314.57091574535775 dipole="0.17420171927041325 -0.41679846855526914 0.19225961931427824" pbc="F F F"
H       11.47642074       9.80092555       8.98704978      -0.00340405       0.00882684      -0.00989337       0.05810321
H        9.08722017       9.12271366       9.11268539      -0.00079215      -0.00991885       0.00102156       0.04884947
H       11.36074541      10.58567524      10.56424625      -0.00236277       0.00657036       0.01499980       0.05996007
H       11.22513935       8.82507274      10.44231158       0.00206310      -0.01152669      -0.00169383       0.04816378
H        8.96546265       9.82577776      10.75673561       0.00170487       0.00514410       0.00866487       0.04880413
C       10.98607696       9.76623503       9.95643927       0.00605363      -0.00312966      -0.00169001      -0.11614189
C        9.48276567       9.88347936       9.79346189      -0.00775279      -0.01022304       0.00352116       0.11197926
F        9.15299646      11.10198915       9.24838754       0.00449016       0.01425694      -0.01493017      -0.25971803
8
Properties=species:S:1:pos:R:3:forces:R:3:charge:R:1 energy:=T -11.501264804125=T gnorm:=T 0.000245291439=T xtb:=T 6.7.1=T (edcfbbe)=T energy=-314.57149962766886 free_energy=-314.57149962766886 dipole="0.17308732529424478 -0.4148240304148594 0.19757918975042493" pbc="F F F"
H       11.47175242       9.91632819       8.84676544      -0.00279941       0.00416209      -0.00223364       0.05862177
H        9.08277491       9.20662142       8.96886360      -0.00107884      -0.00345840       0.00110713       0.04884738
H       11.34600950      10.66944197      10.43936546      -0.00280143       0.00063033       0.00472876       0.05943799
H       11.21667811       8.91056085      10.28157746       0.00102979      -0.00239188      -0.00208043       0.04813929
H        8.95280481       9.92947809      10.60423224       0.00087271       0.00258284       0.00284617       0.04882785
C       10.97727923       9.86077526       9.81331772       0.00223809      -0.00146784       0.00002228      -0.11608482
C        9.47444866       9.97580041       9.64258987       0.00021657      -0.00817328       0.00302555       0.11192938
F        9.14773304      11.18785620       9.08106895       0.00232253       0.00811615      -0.00741581      -0.25971885
8
Properties=species:S:1:pos:R:3:forces:R:3:charge:R:1 energy:=T -11.560293851671=T gnorm:=T 0.000830730379=T xtb:=T 6.7.1=T (edcfbbe)=T energy=-314.57161855270596 free_energy=-314.57161855270596 dipole="0.1729501515854891 -0.41219841764386866 0.20213568335562165" pbc="F F F"
H       11.46370774      10.02469865       8.70431609      -0.00368674      -0.00040527       0.00766895       0.05900889
H        9.07583259       9.28658780       8.83358385       0.00105112       0.01227912      -0.00010277       0.04872177
H       11.33389455      10.75638635      10.30735968      -0.00266798      -0.00623518      -0.00512786       0.05900996
H       11.21220040       8.99855979      10.12608034      -0.00253072       0.00748757      -0.00362992       0.04809031
H        8.94411976      10.02894526      10.46010548       0.00173675       0.00819699      -0.00899337       0.04872176
C       10.96926939       9.95416861       9.67023222      -0.00764358       0.00365524      -0.00234188      -0.11606278
C        9.46571673      10.06552883       9.49764433       0.01747784      -0.02674437       0.01365615       0.11196687
F        9.13889219      11.27039492       8.92127171      -0.00373669       0.00176589      -0.00112930      -0.25945678
