8
 energy: -11.501264804125 gnorm: 0.000245291439 xtb: 6.7.1 (edcfbbe)
H           11.51836325690756        8.73522966631151        9.73629997060440
H            9.05229387453631        8.78120643604657        9.73611720023177
H           10.19771891116437       10.69964455501533       10.65075689240737
H           11.51835478623102        8.73527703359264       11.56545293893013
H            9.05228638860980        8.78125496514892       11.56561226076462
C           10.94706087567056        8.75316436162898       10.65087335987832
C            9.62430662646837        8.78185620402010       10.65086724624657
F           10.18751306041192       11.65005037523607       10.65070988893685
