8
Properties=species:S:1:pos:R:3:forces:R:3:charge:R:1 energy:=T -11.501264804125=T gnorm:=T 0.000245291439=T xtb:=T 6.7.1=T (edcfbbe)=T energy=-311.63057029819174 free_energy=-311.63057029819174 dipole="0.24368102043834308 -0.8069521966630271 0.01242671350138828" pbc="F F F"
H       11.49423986       9.10125406       9.25911289      -0.09385994      -0.07747695       0.03245214       0.07513470
H        9.00807404       9.23559836       9.18781191      -0.03764734       0.18323199       0.00316168       0.10024778
H       10.86377036      10.56099413      10.14230764       1.40812545      -0.84579448       0.02203708       0.26369876
H       11.45326050       9.12338237      11.07547289      -0.09644219      -0.10699024      -0.02149779       0.07534152
H        8.96282879       9.25549942      11.02478476      -0.03889458       0.17835046      -0.00199368       0.10040596
C       10.95986609       9.40131652      10.15238322       0.16828406       0.72493443      -0.00434099      -0.14740623
C        9.53250469       9.37368737      10.11850331      -0.15008957       0.88240484      -0.00626327       0.03678924
F        9.58766842      11.47311504      10.10443561      -1.15947590      -0.93866005      -0.02355518      -0.50421173
