 Entering Gaussian System
 *********************************************
 Gaussian 98:
 frequency output generated by the xtb code
 *********************************************
                         Standard orientation:
 --------------------------------------------------------------------
  Center     Atomic     Atomic              Coordinates (Angstroms)
  Number     Number      Type              X           Y           Z
 --------------------------------------------------------------------
    1          6             0        0.987577   -0.554789    0.000047
    2          6             0        0.608607    0.789985   -0.000009
    3          9             0       -1.450079   -0.138037    0.000026
    4          1             0        1.398150   -0.966487    0.913337
    5          1             0        0.431246    1.322717    0.918277
    6          1             0        1.399395   -0.966354   -0.912759
    7          1             0       -0.186252   -0.881270   -0.000967
    8          1             0        0.431060    1.322557   -0.918354
 --------------------------------------------------------------------
     1 basis functions        1 primitive gaussians
     1 alpha electrons        1 beta electrons

 Harmonic frequencies (cm**-1), IR intensities (km*mol⁻¹),
 Raman scattering activities (A**4/amu), Raman depolarization ratios,
 reduced masses (AMU), force constants (mDyne/A) and normal coordinates:
                      1                      2                      3
                        a                      a                      a 
 Frequencies -- -1301.2629               351.0943               363.3620
 Red. masses --     3.5115                11.8598                 2.1006
 Frc consts  --     0.0000                 0.0000                 0.0000
 IR Inten    --    93.9989                45.2597                 7.1920
 Raman Activ --     0.0000                 0.0000                 0.0000
 Depolar     --     0.0000                 0.0000                 0.0000
 Atom AN      X      Y      Z        X      Y      Z        X      Y      Z
   1   6     0.03   0.22   0.00     0.16   0.01   0.00    -0.00   0.00  -0.09
   2   6     0.31  -0.03  -0.00    -0.58  -0.32   0.00    -0.00  -0.00  -0.12
   3   9    -0.03  -0.22  -0.00     0.50   0.27  -0.00     0.00   0.00   0.22
   4   1    -0.17  -0.08   0.00    -0.03  -0.05   0.00    -0.40  -0.09   0.12
   5   1    -0.00  -0.02  -0.01    -0.25  -0.11  -0.00    -0.45  -0.12  -0.06
   6   1    -0.17  -0.08  -0.01    -0.03  -0.05  -0.00     0.40   0.09   0.12
   7   1    -0.69   0.51   0.00    -0.18   0.18   0.00    -0.00   0.00  -0.34
   8   1    -0.00  -0.02   0.01    -0.25  -0.11   0.00     0.45   0.12  -0.06
                      4                      5                      6
                        a                      a                      a 
 Frequencies --   472.6192               655.3418               824.2980
 Red. masses --    13.0038                 1.0490                 1.4514
 Frc consts  --     0.0000                 0.0000                 0.0000
 IR Inten    --    27.4231                45.1646                12.2963
 Raman Activ --     0.0000                 0.0000                 0.0000
 Depolar     --     0.0000                 0.0000                 0.0000
 Atom AN      X      Y      Z        X      Y      Z        X      Y      Z
   1   6    -0.66  -0.01   0.00     0.00   0.00   0.02    -0.00   0.00   0.09
   2   6    -0.01   0.20   0.00    -0.00  -0.00   0.03    -0.00  -0.00   0.18
   3   9     0.59  -0.16  -0.00     0.00   0.00   0.04     0.00  -0.00   0.01
   4   1    -0.19   0.01   0.00    -0.29  -0.03   0.12     0.09  -0.39  -0.20
   5   1     0.11   0.10  -0.00     0.46   0.18  -0.01    -0.15   0.44  -0.25
   6   1    -0.19   0.01  -0.00     0.29   0.03   0.12    -0.09   0.39  -0.20
   7   1    -0.06  -0.17   0.00    -0.00   0.00  -0.56    -0.00   0.00  -0.07
   8   1     0.11   0.10   0.00    -0.46  -0.18  -0.01     0.15  -0.44  -0.25
                      7                      8                      9
                        a                      a                      a 
 Frequencies --   878.7383              1123.1497              1165.3353
 Red. masses --     3.7767                 2.6432                 4.8107
 Frc consts  --     0.0000                 0.0000                 0.0000
 IR Inten    --     6.7892                 8.0308                 2.5089
 Raman Activ --     0.0000                 0.0000                 0.0000
 Depolar     --     0.0000                 0.0000                 0.0000
 Atom AN      X      Y      Z        X      Y      Z        X      Y      Z
   1   6     0.20   0.09  -0.00    -0.27  -0.05  -0.00     0.00  -0.00   0.42
   2   6    -0.42  -0.15  -0.00     0.01  -0.27  -0.00     0.00   0.00  -0.41
   3   9    -0.04  -0.03   0.00     0.02   0.04  -0.00    -0.00  -0.00   0.01
   4   1    -0.09  -0.05   0.02     0.42   0.44  -0.02     0.05  -0.43  -0.11
   5   1     0.57   0.18   0.00     0.12  -0.03  -0.01     0.12  -0.31   0.10
   6   1    -0.09  -0.05  -0.02     0.42   0.44   0.02    -0.06   0.43  -0.11
   7   1    -0.02   0.09  -0.00    -0.26   0.10   0.00     0.00  -0.00  -0.08
   8   1     0.57   0.19  -0.00     0.12  -0.03   0.01    -0.12   0.31   0.10
                     10                     11                     12
                        a                      a                      a 
 Frequencies --  1203.3124              1266.6181              1374.7088
 Red. masses --     1.4385                 5.3910                 2.2301
 Frc consts  --     0.0000                 0.0000                 0.0000
 IR Inten    --    72.2476                67.7090                 0.5200
 Raman Activ --     0.0000                 0.0000                 0.0000
 Depolar     --     0.0000                 0.0000                 0.0000
 Atom AN      X      Y      Z        X      Y      Z        X      Y      Z
   1   6     0.00   0.00  -0.19    -0.02  -0.50  -0.00     0.13  -0.09   0.00
   2   6    -0.00   0.00  -0.00    -0.13   0.36  -0.00     0.11  -0.27   0.00
   3   9    -0.00   0.00  -0.03     0.04  -0.04  -0.00    -0.02   0.02   0.00
   4   1    -0.40  -0.22   0.05     0.25  -0.18  -0.12    -0.20   0.22   0.21
   5   1     0.14   0.04   0.00    -0.07   0.31  -0.11    -0.16   0.43  -0.31
   6   1     0.40   0.22   0.05     0.25  -0.18   0.12    -0.20   0.22  -0.21
   7   1    -0.00  -0.00   0.71    -0.01   0.41   0.00    -0.03  -0.13  -0.00
   8   1    -0.14  -0.04   0.00    -0.07   0.31   0.11    -0.16   0.43   0.31
                     13                     14                     15
                        a                      a                      a 
 Frequencies --  1463.1058              1661.5759              3063.4960
 Red. masses --     3.7685                 4.1996                 1.4536
 Frc consts  --     0.0000                 0.0000                 0.0000
 IR Inten    --    39.6287               194.8542                 1.1400
 Raman Activ --     0.0000                 0.0000                 0.0000
 Depolar     --     0.0000                 0.0000                 0.0000
 Atom AN      X      Y      Z        X      Y      Z        X      Y      Z
   1   6     0.10  -0.40  -0.00    -0.28   0.26  -0.00    -0.14   0.14   0.00
   2   6    -0.06   0.27   0.00     0.12  -0.35  -0.00    -0.00  -0.01  -0.00
   3   9     0.02  -0.04  -0.00     0.01  -0.05  -0.00     0.00   0.00  -0.00
   4   1    -0.23   0.31   0.29    -0.03  -0.03  -0.06     0.25  -0.25   0.59
   5   1     0.04  -0.18   0.16    -0.02   0.01  -0.08    -0.01   0.02   0.04
   6   1    -0.23   0.31  -0.29    -0.03  -0.03   0.06     0.25  -0.25  -0.60
   7   1     0.16   0.36   0.00     0.60   0.57   0.00    -0.01   0.01   0.00
   8   1     0.04  -0.18  -0.16    -0.02   0.02   0.08    -0.01   0.02  -0.04
                     16                     17                     18
                        a                      a                      a 
 Frequencies --  3088.4890              3110.5740              3149.3663
 Red. masses --     2.0632                 1.4777                 2.1521
 Frc consts  --     0.0000                 0.0000                 0.0000
 IR Inten    --     9.5997                 6.1486                 3.7633
 Raman Activ --     0.0000                 0.0000                 0.0000
 Depolar     --     0.0000                 0.0000                 0.0000
 Atom AN      X      Y      Z        X      Y      Z        X      Y      Z
   1   6     0.00  -0.00   0.31    -0.01   0.00  -0.00    -0.00   0.00  -0.06
   2   6    -0.00   0.00  -0.05    -0.07   0.20  -0.00     0.00  -0.00  -0.32
   3   9    -0.00  -0.00  -0.00     0.00  -0.00  -0.00    -0.00   0.00   0.00
   4   1    -0.26   0.26  -0.55     0.02  -0.02   0.04     0.05  -0.04   0.10
   5   1    -0.02   0.06   0.10     0.11  -0.32  -0.60    -0.11   0.34   0.56
   6   1     0.26  -0.26  -0.55     0.02  -0.01  -0.04    -0.05   0.04   0.10
   7   1     0.00  -0.00   0.02    -0.01   0.00  -0.00     0.00   0.00  -0.01
   8   1     0.02  -0.06   0.10     0.11  -0.32   0.60     0.11  -0.34   0.56
