5
Properties=species:S:1:pos:R:3:forces:R:3:charge:R:1 0=T 2=T energy=-207.8122764937056 free_energy=-207.8122764937056 dipole="0.02180155201444156 0.3640031182350605 0.00012195587362445222" pbc="F F F"
H        9.26073026       9.92267865      10.00703156      -0.00027954       0.00104752       0.00013292       0.04856457
H       11.59981733      11.54979971      10.00691282       0.00364118       0.00207192      -0.00008912       0.30007536
H        9.36235502      11.80216792      10.00676524      -0.00122205      -0.00046254       0.00022978       0.02063147
C        9.81764383      10.83358172      10.00639883       0.00623033      -0.00237751      -0.00051897      -0.01680056
O       11.17498779      10.68649794      10.00708325      -0.00836992      -0.00027938       0.00024539      -0.35247083
5
Properties=species:S:1:pos:R:3:forces:R:3:charge:R:1 0=T 2=T energy=-207.81748427096971 free_energy=-207.81748427096971 dipole="0.03138245487463408 0.3595710810046586 0.02797014952070914" pbc="F F F"
H        9.29775900       9.82407110      10.10581539       0.00515512       0.00282541      -0.00604169       0.04736757
H       11.63952075      11.43428509      10.05536478       0.00039585      -0.00677660       0.00091167       0.30057983
H        9.40350664      11.68881932      10.13237466      -0.00822242       0.00062516      -0.00731461       0.01919612
C        9.85487167      10.72826166       9.96637637      -0.00135613       0.00252887       0.01859740      -0.01441060
O       11.20329542      10.57817487      10.11662802       0.00402758       0.00079716      -0.00615277      -0.35273292
5
Properties=species:S:1:pos:R:3:forces:R:3:charge:R:1 0=T 2=T energy=-207.80860658229918 free_energy=-207.80860658229918 dipole="0.035990693526332794 0.35284238140912094 -0.019680257484816496" pbc="F F F"
H        9.30732181       9.75295086      10.04662360      -0.00690699       0.00487632       0.07476643       0.04773463
H       11.69226222      11.30364831      10.08521578      -0.02031955      -0.00445331       0.08123431       0.30013284
H        9.44351474      11.61411849      10.26053442       0.01341422      -0.01295147      -0.00129315       0.02066951
C        9.88347208      10.65301183      10.07712922       0.00764818       0.00514950      -0.07955073      -0.01485475
O       11.22950706      10.46634226      10.20034223       0.00616413       0.00737897      -0.07515686      -0.35368223
5
Properties=species:S:1:pos:R:3:forces:R:3:charge:R:1 0=T 2=T energy=-207.75047721074085 free_energy=-207.75047721074085 dipole="0.035052354388856 0.3336724872195262 -0.1495140568020246" pbc="F F F"
H        9.31207744       9.79356785       9.92798064      -0.09018636      -0.01712870       0.14618197       0.04589974
H       11.70175143      11.25342666       9.95824059       0.03211600       0.12387138       0.19613394       0.29869835
H        9.43066206      11.63540704      10.30824768       0.05501235      -0.01719799      -0.05920772       0.02207303
C        9.87669326      10.66937135      10.16680376       0.00082380      -0.02033684      -0.07539027      -0.00893634
O       11.21964555      10.48328326      10.28011056       0.00223420      -0.06920784      -0.20771791      -0.35773478
5
Properties=species:S:1:pos:R:3:forces:R:3:charge:R:1 0=T 2=T energy=-207.55898890187316 free_energy=-207.55898890187316 dipole="-0.006765545312397027 0.23492300317623496 -0.319074099370473" pbc="F F F"
H        9.38795755       9.82966187       9.81416006      -0.23557788      -0.08557100       0.14046877       0.03983637
H       11.65750400      11.10320260       9.78515001       0.55720399       0.26367427       0.17715662       0.30423666
H        9.39668026      11.63416605      10.37621396      -0.04830261       0.01285943      -0.09358502       0.02878912
C        9.88458916      10.69065793      10.21207665      -0.16798559      -0.11249737       0.12750792       0.00881776
O       11.21490394      10.57499228      10.45528551      -0.10533793      -0.07846533      -0.35154829      -0.38167991
5
Properties=species:S:1:pos:R:3:forces:R:3:charge:R:1 0=T 2=T energy=-206.8445634568561 free_energy=-206.8445634568561 dipole="-0.12698722417058078 0.15736994891400635 -0.43459461118716075" pbc="F F F"
H        9.51076457       9.86752702       9.73714794      -0.33338794      -0.22556142      -0.06564351       0.04291199
H       11.39617523      10.97210571       9.70800837       2.05095014      -0.30691481       1.04405814       0.34742939
H        9.42751233      11.62702717      10.41256918      -0.36317134       0.19055541       0.09877915       0.04318133
C        9.95574433      10.73423389      10.16943085      -1.36792338      -0.34601984       0.74407793      -0.00762817
O       11.25448465      10.62280019      10.62141583       0.01353252       0.68794066      -1.82127171      -0.42589454
5
Properties=species:S:1:pos:R:3:forces:R:3:charge:R:1 0=T 2=T energy=-206.23163189512744 free_energy=-206.23163189512744 dipole="-0.32041503688681716 0.17470577612383983 -0.5041064919206448" pbc="F F F"
H        9.54762218       9.89608068       9.74413862       0.32549367       0.15720245       0.02678410       0.05822409
H       11.16193029      11.00809217       9.58627959      -1.39577414       0.32405375      -0.97185579       0.29702491
H        9.46662059      11.60450199      10.40356639       0.33994567      -0.10220604      -0.10172393       0.05854197
C       10.11311421      10.77524352      10.08362536       0.94063021       0.14539721      -0.27281682       0.02796078
O       11.25341995      10.54559891      10.82727776      -0.21029540      -0.52444736       1.31961244      -0.44175175
5
Properties=species:S:1:pos:R:3:forces:R:3:charge:R:1 0=T 2=T energy=-207.0705761843936 free_energy=-207.0705761843936 dipole="-0.35132477381868954 0.17415631563977615 -0.5062876273736472" pbc="F F F"
H        9.60154680       9.91011276       9.74062788       0.41164470       0.12565862      -0.03597067       0.05697284
H       11.03544878      11.05997435       9.43409397      -1.01525564       0.43627525      -1.22557863       0.19229626
H        9.52153928      11.60127839      10.38854784       0.42638653      -0.03115654      -0.12575901       0.05682131
C       10.19932682      10.76732048      10.11301475       0.69915120      -0.06501285       0.24782543       0.06694656
O       11.18577366      10.48809321      10.97033569      -0.52192679      -0.46576449       1.13948288      -0.37303697
5
Properties=species:S:1:pos:R:3:forces:R:3:charge:R:1 0=T 2=T energy=-207.4399906151147 free_energy=-207.4399906151147 dipole="-0.3407090011009332 0.1912873685868807 -0.5481325510316075" pbc="F F F"
H        9.68498375       9.90216355       9.73742453       0.05911886      -0.01055781      -0.00837226       0.06210619
H       10.89809864      11.10634429       9.29543188      -0.09963274       0.03306340      -0.11218775       0.14076470
H        9.60126957      11.60933548      10.38364858       0.07435338       0.00174557       0.01768255       0.06092582
C       10.26604548      10.75458123      10.14336845       0.04648912       0.00155364       0.00828781       0.07787882
O       11.10204903      10.42836053      11.10319339      -0.08032862      -0.02580480       0.09458964      -0.34167554
5
Properties=species:S:1:pos:R:3:forces:R:3:charge:R:1 0=T 2=T energy=-207.44708142980306 free_energy=-207.44708142980306 dipole="-0.360696738399367 0.299748192619248 -0.49883078845035267" pbc="F F F"
H        9.66877423       9.89934416       9.70374017       0.01565937       0.00194001       0.00605859       0.04155731
H       10.90936953      11.17550026       9.34307874      -0.00570638      -0.00405501       0.00172689       0.11002782
H        9.66250142      11.54581979      10.46049417       0.01102924      -0.00457569       0.00098218       0.11219848
C       10.30341951      10.68907700      10.14347108      -0.01047029       0.00782573      -0.00129529       0.07892384
O       11.07275816      10.30112400      11.13244666      -0.01051194      -0.00113505      -0.00747236      -0.34270746
5
Properties=species:S:1:pos:R:3:forces:R:3:charge:R:1 0=T 2=T energy=-207.44710029656525 free_energy=-207.44710029656525 dipole="-0.3533966415795871 0.2867401382754487 -0.5114508428595966" pbc="F F F"
H        9.71393608       9.79035982       9.77105636       0.00476873      -0.00179189       0.00789561       0.04159738
H       10.95086601      11.06459806       9.40310383       0.00202193       0.00260314       0.00169203       0.11084003
H        9.68665168      11.45324565      10.49440717       0.00297507      -0.00176240      -0.00246996       0.11141927
C       10.33554517      10.59315310      10.20504348      -0.00576869       0.00456235      -0.00109491       0.07886473
O       11.09233150      10.23008717      11.21295413      -0.00399705      -0.00361120      -0.00602277      -0.34272141
5
Properties=species:S:1:pos:R:3:forces:R:3:charge:R:1 0=T 2=T energy=-207.4470918396203 free_energy=-207.4470918396203 dipole="-0.3456835978133377 0.1592997446688959 -0.569086650688545" pbc="F F F"
H        9.80008725       9.73118774       9.81443343       0.00015201       0.00195613      -0.00236614       0.11301117
H       10.98838365      10.90452076       9.42590762       0.00258863       0.00173687      -0.00154026       0.10929845
H        9.65757829      11.37258918      10.56887963       0.00059502       0.00292331      -0.00077786       0.04177518
C       10.36235270      10.57123555      10.28635004      -0.00544117      -0.00972301       0.00600034       0.07876394
O       11.11613565      10.12352814      11.26203558       0.00210551       0.00310670      -0.00131608      -0.34284875
