3
 energy: -5.472159881199 gnorm: 0.000145687768 xtb: 6.7.1 (edcfbbe)
H           10.53275287303455       10.03156538387375       10.55660866308150
C            8.62066548674377       11.01202876625039       10.73093678683344
N            9.64810846022168       10.48528670987586       10.63739533008505
