5
 energy: -7.623540074508 gnorm: 0.000279811154 xtb: 6.7.1 (edcfbbe)
H            9.80008725397551        9.73118773925934        9.81443342912637
H           10.98838365192069       10.90452076439273        9.42590762232650
H            9.65757829294049       11.37258918458321       10.56887962547866
C           10.36235269878340       10.57123555089737       10.28635003693410
O           11.11613565437991       10.12352814286735       11.26203558013437
