5
Properties=species:S:1:pos:R:3:forces:R:3:charge:R:1 energy:=T -7.636960363196=T gnorm:=T 0.000223970056=T xtb:=T 6.7.1=T (edcfbbe)=T energy=-206.12479530276465 free_energy=-206.12479530276465 dipole="-0.2529625635814568 0.1704265061470917 -0.47667909061118857" pbc="F F F"
H        9.54563452       9.85968930       9.77106905      -0.13974973      -0.07595431      -0.01398771       0.05660213
H       11.21239415      10.95523676       9.68492529       0.68472264      -0.16025613       0.49125658       0.36057277
H        9.47755387      11.59948897      10.42517570      -0.16630642       0.08273130       0.04710457       0.05668890
C       10.05644419      10.75428443      10.09092012      -0.47502011      -0.08885050       0.10605233      -0.01191500
O       11.28481990      10.56010148      10.73652168       0.09635364       0.24232964      -0.63042577      -0.46194880
