8
 energy: -11.560293851671 gnorm: 0.000830732017 xtb: 6.7.1 (edcfbbe)
H           11.46370773571844       10.02469864871869        8.70431609249895
H            9.07583259166941        9.28658780489502        8.83358385170801
H           11.33389454576358       10.75638635289929       10.30735967880112
H           11.21220039645748        8.99855979015397       10.12608034280855
H            8.94411976382171       10.02894526405911       10.46010548190487
C           10.96926939245742        9.95416860592209        9.67023221875512
C            9.46571673105401       10.06552883361273        9.49764432837574
F            9.13889218805795       11.27039491673911        8.92127170614765
