 Entering Gaussian System
 *********************************************
 Gaussian 98:
 frequency output generated by the xtb code
 *********************************************
                         Standard orientation:
 --------------------------------------------------------------------
  Center     Atomic     Atomic              Coordinates (Angstroms)
  Number     Number      Type              X           Y           Z
 --------------------------------------------------------------------
    1          6             0        1.036214   -0.618778   -0.111762
    2          6             0       -1.187228   -0.114809    0.076163
    3          6             0        1.071806    0.834500    0.192337
    4          8             0       -0.334671   -1.132428    0.008044
    5          8             0       -0.787982    1.021180   -0.228336
    6          1             0        1.501621    1.510133   -0.521640
    7          1             0        1.078495    1.143055    1.223321
    8          1             0       -2.091530   -0.315982    0.654462
    9          1             0        1.363804   -0.830406   -1.133157
   10          1             0        1.604075   -1.222292    0.598921
 --------------------------------------------------------------------
     1 basis functions        1 primitive gaussians
     1 alpha electrons        1 beta electrons

 Harmonic frequencies (cm**-1), IR intensities (km*mol⁻¹),
 Raman scattering activities (A**4/amu), Raman depolarization ratios,
 reduced masses (AMU), force constants (mDyne/A) and normal coordinates:
                      1                      2                      3
                        a                      a                      a 
 Frequencies --  -471.8658               145.3783               423.2006
 Red. masses --    12.6408                 8.8821                10.1956
 Frc consts  --     0.0000                 0.0000                 0.0000
 IR Inten    --   165.7373                 1.1416                23.2727
 Raman Activ --     0.0000                 0.0000                 0.0000
 Depolar     --     0.0000                 0.0000                 0.0000
 Atom AN      X      Y      Z        X      Y      Z        X      Y      Z
   1   6     0.10   0.02  -0.01    -0.12   0.07  -0.38     0.09   0.01   0.01
   2   6     0.06   0.04   0.01    -0.00   0.03  -0.04     0.13   0.11   0.56
   3   6     0.65  -0.12   0.11    -0.05  -0.05   0.31    -0.03  -0.05   0.13
   4   8    -0.06   0.14   0.06     0.09   0.01   0.45    -0.09   0.04  -0.35
   5   8    -0.63  -0.04  -0.09     0.10  -0.07  -0.31    -0.11  -0.12  -0.42
   6   1     0.05  -0.00  -0.01     0.09   0.07   0.23     0.13   0.02   0.15
   7   1     0.06  -0.01   0.02    -0.12  -0.17   0.14    -0.23  -0.05   0.05
   8   1    -0.12  -0.13  -0.24    -0.01   0.04  -0.02     0.16   0.09   0.37
   9   1    -0.01  -0.01  -0.01    -0.23   0.20  -0.21     0.11   0.01   0.03
  10   1    -0.02  -0.07  -0.02     0.14  -0.07  -0.33    -0.06  -0.02   0.05
                      4                      5                      6
                        a                      a                      a 
 Frequencies --   554.6146               669.0311               745.2230
 Red. masses --    11.3105                 4.3261                 8.7648
 Frc consts  --     0.0000                 0.0000                 0.0000
 IR Inten    --    12.4110                 1.9136                 9.5359
 Raman Activ --     0.0000                 0.0000                 0.0000
 Depolar     --     0.0000                 0.0000                 0.0000
 Atom AN      X      Y      Z        X      Y      Z        X      Y      Z
   1   6     0.19  -0.32  -0.07     0.37  -0.05  -0.04    -0.28  -0.13   0.07
   2   6     0.09   0.11  -0.10    -0.08   0.06  -0.01     0.44   0.13   0.32
   3   6    -0.33  -0.30  -0.13    -0.10  -0.21   0.15    -0.24   0.03   0.09
   4   8     0.33   0.17   0.13    -0.08   0.18   0.04     0.14  -0.23  -0.11
   5   8    -0.31   0.38   0.08     0.00  -0.01  -0.13    -0.06   0.22  -0.17
   6   1     0.12  -0.06   0.12    -0.73   0.21  -0.12    -0.17  -0.06  -0.10
   7   1    -0.30  -0.17  -0.01     0.28  -0.15   0.07     0.29   0.02   0.02
   8   1     0.06  -0.05  -0.00     0.03   0.06   0.11    -0.15  -0.09  -0.43
   9   1     0.12  -0.17   0.01     0.05  -0.05  -0.02    -0.08   0.05  -0.01
  10   1     0.05  -0.01   0.06     0.04  -0.05  -0.00     0.05   0.01  -0.04
                      7                      8                      9
                        a                      a                      a 
 Frequencies --   762.6544               811.8419               840.5526
 Red. masses --     4.9907                 5.1594                 9.7472
 Frc consts  --     0.0000                 0.0000                 0.0000
 IR Inten    --    15.7638                10.1411                27.7230
 Raman Activ --     0.0000                 0.0000                 0.0000
 Depolar     --     0.0000                 0.0000                 0.0000
 Atom AN      X      Y      Z        X      Y      Z        X      Y      Z
   1   6     0.25   0.08  -0.07     0.06   0.05  -0.16     0.17   0.14  -0.10
   2   6     0.14   0.05   0.14    -0.23  -0.01   0.25     0.24  -0.00  -0.17
   3   6     0.06  -0.01  -0.12    -0.09   0.05  -0.13    -0.00   0.16  -0.04
   4   8    -0.30  -0.19   0.05     0.03   0.25  -0.00    -0.33  -0.50   0.13
   5   8     0.17   0.02   0.10     0.15  -0.24  -0.02    -0.16   0.23  -0.00
   6   1    -0.23   0.19   0.01     0.20   0.14   0.22     0.13   0.18   0.19
   7   1    -0.65   0.10  -0.07     0.21  -0.37   0.09     0.23  -0.29   0.10
   8   1    -0.21   0.02  -0.36    -0.29  -0.09  -0.35     0.14   0.13   0.14
   9   1     0.01  -0.02  -0.02     0.14  -0.27   0.06     0.06  -0.16   0.03
  10   1     0.03   0.01  -0.01    -0.07   0.19   0.19    -0.00   0.19   0.13
                     10                     11                     12
                        a                      a                      a 
 Frequencies --   864.4896              1063.1590              1094.1069
 Red. masses --     6.8938                10.4333                 6.6310
 Frc consts  --     0.0000                 0.0000                 0.0000
 IR Inten    --    14.0736                36.4941                16.9254
 Raman Activ --     0.0000                 0.0000                 0.0000
 Depolar     --     0.0000                 0.0000                 0.0000
 Atom AN      X      Y      Z        X      Y      Z        X      Y      Z
   1   6     0.58   0.04   0.10     0.06  -0.53   0.03    -0.01  -0.10   0.43
   2   6    -0.14   0.02   0.08    -0.42   0.16   0.08     0.25  -0.11  -0.06
   3   6    -0.27  -0.01  -0.00     0.17   0.44   0.04    -0.03   0.13  -0.30
   4   8    -0.24  -0.03  -0.01     0.16  -0.24  -0.08    -0.12   0.25  -0.09
   5   8    -0.04   0.02  -0.02    -0.03   0.11  -0.05    -0.01  -0.09   0.04
   6   1     0.33  -0.30  -0.06    -0.02   0.26   0.09     0.02   0.29   0.18
   7   1     0.24   0.14  -0.04    -0.01   0.08   0.03    -0.02  -0.31   0.03
   8   1    -0.15   0.05  -0.13    -0.09   0.04   0.04     0.09  -0.10   0.01
   9   1    -0.06   0.22  -0.08    -0.01  -0.07  -0.02    -0.42   0.05  -0.04
  10   1     0.19  -0.20  -0.19     0.27  -0.04  -0.10     0.10  -0.26  -0.18
                     13                     14                     15
                        a                      a                      a 
 Frequencies --  1101.7187              1180.9646              1226.8270
 Red. masses --     7.5437                 3.8560                 2.8997
 Frc consts  --     0.0000                 0.0000                 0.0000
 IR Inten    --    33.2099                 8.6694                 9.5294
 Raman Activ --     0.0000                 0.0000                 0.0000
 Depolar     --     0.0000                 0.0000                 0.0000
 Atom AN      X      Y      Z        X      Y      Z        X      Y      Z
   1   6    -0.08   0.29   0.28     0.03  -0.12  -0.09    -0.02  -0.04  -0.02
   2   6    -0.27   0.09   0.06     0.16  -0.03  -0.06     0.15  -0.14  -0.04
   3   6     0.13  -0.39  -0.16    -0.03   0.04   0.22    -0.03   0.04   0.05
   4   8     0.17  -0.21  -0.13    -0.22   0.22  -0.07     0.14   0.10  -0.08
   5   8     0.00   0.11  -0.03     0.02  -0.11   0.02    -0.14  -0.16   0.10
   6   1    -0.03  -0.03   0.00     0.03  -0.15  -0.07     0.01  -0.03  -0.01
   7   1    -0.04  -0.24  -0.00    -0.04   0.19   0.00    -0.01   0.04   0.00
   8   1    -0.08   0.12   0.02     0.11  -0.20   0.04    -0.20   0.87  -0.07
   9   1    -0.16   0.18   0.01    -0.30  -0.39  -0.04    -0.14  -0.18  -0.02
  10   1     0.40   0.37  -0.02     0.45   0.46   0.04     0.02   0.00  -0.01
                     16                     17                     18
                        a                      a                      a 
 Frequencies --  1280.0883              1389.1350              1444.0153
 Red. masses --     4.7225                 2.3024                 2.3243
 Frc consts  --     0.0000                 0.0000                 0.0000
 IR Inten    --    12.6809                 2.3601                 1.0776
 Raman Activ --     0.0000                 0.0000                 0.0000
 Depolar     --     0.0000                 0.0000                 0.0000
 Atom AN      X      Y      Z        X      Y      Z        X      Y      Z
   1   6    -0.14  -0.29  -0.02    -0.03   0.03   0.03    -0.17   0.26   0.07
   2   6     0.20   0.01  -0.08     0.01   0.05  -0.02     0.01  -0.01  -0.00
   3   6    -0.02   0.01  -0.09     0.05   0.32   0.06    -0.03  -0.13  -0.02
   4   8    -0.22   0.19   0.07    -0.03  -0.00   0.01    -0.04  -0.00   0.01
   5   8    -0.04  -0.19   0.08    -0.00  -0.05   0.02     0.00   0.00  -0.00
   6   1     0.01   0.08   0.06    -0.06  -0.41  -0.46     0.01   0.12   0.15
   7   1     0.04  -0.02  -0.02    -0.22  -0.56   0.19     0.07   0.17  -0.06
   8   1     0.02   0.11  -0.02     0.01   0.00   0.01     0.01  -0.01   0.00
   9   1     0.52   0.52   0.05     0.18  -0.10   0.08     0.40  -0.44   0.23
  10   1     0.29   0.24  -0.01     0.11  -0.10  -0.17     0.31  -0.25  -0.49
                     19                     20                     21
                        a                      a                      a 
 Frequencies --  1497.9997              2891.7804              2951.0382
 Red. masses --    13.1332                 1.7222                 1.8094
 Frc consts  --     0.0000                 0.0000                 0.0000
 IR Inten    --   260.5361                19.4719                20.9575
 Raman Activ --     0.0000                 0.0000                 0.0000
 Depolar     --     0.0000                 0.0000                 0.0000
 Atom AN      X      Y      Z        X      Y      Z        X      Y      Z
   1   6    -0.04  -0.06  -0.02     0.01   0.00  -0.00    -0.05   0.03   0.26
   2   6    -0.07  -0.76   0.16    -0.21  -0.05   0.12    -0.00  -0.00   0.00
   3   6     0.12   0.02   0.03     0.01  -0.00   0.00     0.00   0.00  -0.01
   4   8    -0.11   0.16   0.01    -0.02   0.01   0.01    -0.01  -0.00   0.00
   5   8     0.10   0.52  -0.16    -0.01  -0.01   0.01    -0.00  -0.00  -0.00
   6   1    -0.01  -0.01  -0.03     0.00   0.00  -0.00    -0.00  -0.01   0.01
   7   1    -0.01  -0.02   0.02    -0.00  -0.00   0.00    -0.00   0.01   0.04
   8   1    -0.09   0.02   0.01     0.81   0.18  -0.49     0.01   0.00  -0.00
   9   1     0.07   0.04   0.01    -0.00   0.00   0.01     0.28  -0.18  -0.89
  10   1     0.05   0.04  -0.01     0.00  -0.00   0.00    -0.07   0.08  -0.05
                     22                     23                     24
                        a                      a                      a 
 Frequencies --  2969.0514              3113.0441              3167.0880
 Red. masses --     1.6660                 1.5384                 2.0476
 Frc consts  --     0.0000                 0.0000                 0.0000
 IR Inten    --    12.5221                11.6585                 7.8914
 Raman Activ --     0.0000                 0.0000                 0.0000
 Depolar     --     0.0000                 0.0000                 0.0000
 Atom AN      X      Y      Z        X      Y      Z        X      Y      Z
   1   6    -0.14   0.15  -0.14    -0.00  -0.00  -0.01     0.00   0.00  -0.01
   2   6     0.00  -0.00  -0.00     0.00   0.00  -0.00    -0.00  -0.00  -0.00
   3   6    -0.01   0.00   0.00    -0.04  -0.14  -0.17     0.10   0.13  -0.26
   4   8    -0.01   0.00  -0.00     0.00   0.00   0.00     0.00  -0.00  -0.00
   5   8     0.00  -0.00   0.00    -0.00  -0.00   0.00     0.00   0.00   0.00
   6   1     0.00   0.01  -0.01     0.15   0.23  -0.28    -0.35  -0.56   0.59
   7   1     0.00  -0.00  -0.01    -0.01   0.25   0.86     0.01   0.12   0.33
   8   1    -0.00  -0.00   0.00    -0.00  -0.00  -0.00     0.00  -0.00  -0.00
   9   1     0.02  -0.00  -0.14    -0.01   0.00   0.03    -0.01   0.00   0.02
  10   1     0.50  -0.52   0.63     0.00  -0.00   0.00     0.01  -0.01   0.01
