4
Properties=species:S:1:pos:R:3:forces:R:3:charge:R:1 0=T 1=T energy=-195.25932655129282 free_energy=-195.25932655129282 dipole="-2.0706649261387642e-05 0.4862223614086482 -0.00013785712423038652" pbc="F F F"
H        9.27289837      11.04545024       9.85539227      -0.00798943       0.00068918      -0.00106612       0.04216232
H       11.12635376      11.04553035       9.85538860       0.00793597       0.00064275      -0.00106646       0.04216178
C       10.19965038      10.44754388       9.85527288       0.00004376      -0.00472639       0.00320368       0.18354742
O       10.19970006       9.25542412       9.85572550       0.00000970       0.00339446      -0.00107110      -0.26787153
4
Properties=species:S:1:pos:R:3:forces:R:3:charge:R:1 0=T 1=T energy=-195.25922307203865 free_energy=-195.25922307203865 dipole="-0.08059933381909933 0.4786287543068187 -0.025364543652125905" pbc="F F F"
H        9.20146924      10.92590326       9.62042777      -0.01921849      -0.02172056      -0.00538291       0.04181251
H       10.95257935      11.24806339      10.12294004       0.02658682      -0.01537333       0.00776969       0.04184276
C       10.17684454      10.49550900       9.90310467      -0.00626465       0.01802263      -0.00202770       0.18378726
O       10.37460452       9.32160042       9.96533285      -0.00110368       0.01907125      -0.00035907      -0.26744253
4
Properties=species:S:1:pos:R:3:forces:R:3:charge:R:1 0=T 1=T energy=-195.25928518936354 free_energy=-195.25928518936354 dipole="-0.14415477313074107 0.4549836034070974 -0.09207546286085394" pbc="F F F"
H        9.34373462      10.73871993       9.22115561       0.01830364       0.01211292       0.01121521       0.04216910
H       10.64618676      11.38885058      10.37344858      -0.00885025      -0.01978568      -0.01403990       0.04229205
C       10.17365604      10.50524187       9.91041698      -0.01886216      -0.00741002      -0.00106299       0.18348285
O       10.52721458       9.38939939      10.13679819       0.00940877       0.01508278       0.00388769      -0.26794401
4
Properties=species:S:1:pos:R:3:forces:R:3:charge:R:1 0=T 1=T energy=-195.25930400976816 free_energy=-195.25930400976816 dipole="-0.23310870348624918 0.4190062233900521 0.08095636489519525" pbc="F F F"
H        9.05022131      10.70367204       9.82938880      -0.01001102       0.01667586      -0.00025394       0.04228440
H       10.64650358      11.49543146      10.34564273      -0.00125622       0.00480193      -0.00216697       0.04234775
C       10.13520388      10.58614461       9.98763526      -0.00417692      -0.01703129       0.00433157       0.18344376
O       10.70677859       9.55896656       9.78955548       0.01544416      -0.00444650      -0.00191065      -0.26807591
4
Properties=species:S:1:pos:R:3:forces:R:3:charge:R:1 0=T 1=T energy=-195.09932421387782 free_energy=-195.09932421387782 dipole="-0.0861955710034531 0.47027616343100853 -0.01939030447638507" pbc="F F F"
H        9.28296361      11.03700296       9.72727539      -1.31114110      -0.58108342      -0.21865178       0.04231105
H       10.96664369      11.22347047      10.01989037       0.18400169      -1.04674814       0.04875826       0.01763180
C       10.15763131      10.42773155       9.88737150       1.44836607       1.23877193       0.22422138       0.19188172
O       10.32309889       9.25027859       9.92657019      -0.32122665       0.38905964      -0.05432787      -0.25182458
4
Properties=species:S:1:pos:R:3:forces:R:3:charge:R:1 0=T 1=T energy=-192.09240103813698 free_energy=-192.09240103813698 dipole="-0.2801505270921919 0.16684072793840518 -0.05212318116173403" pbc="F F F"
H        9.62455784      11.18398781       9.77956217      -0.01361195      -0.00791003       0.00749808       0.19305935
H       10.92305831      11.49027440      10.00864878       0.00321552      -0.01118952      -0.00187537      -0.20373507
C        9.77649767      10.11349223       9.82416828       0.01338294       0.01218171      -0.01216137       0.14497369
O       10.40763146       9.14774849       9.94585496      -0.00298652       0.00691784       0.00653866      -0.13429796
4
Properties=species:S:1:pos:R:3:forces:R:3:charge:R:1 0=T 1=T energy=-193.15705921564452 free_energy=-193.15705921564452 dipole="0.07817356598017951 0.11494141657182305 0.013833120703788759" pbc="F F F"
H        9.98508789      11.33646919       9.84060461       0.77997375       0.33557952       0.14002589       0.07175642
H       10.76350980      11.68766019       9.98262131      -0.34446439       0.43892170      -0.06794289      -0.00145984
C        9.57510089       9.83189623       9.77933443      -0.44008859      -0.62052053      -0.07436082       0.04486199
O       10.40880816       9.07786512       9.95411971       0.00457923      -0.15398068       0.00227782      -0.11515856
4
Properties=species:S:1:pos:R:3:forces:R:3:charge:R:1 0=T 1=T energy=-193.38624144217715 free_energy=-193.38624144217715 dipole="0.0979274665129085 0.010894643167179334 0.01410029270975885" pbc="F F F"
H       10.16239549      11.41230951       9.89735533       0.04843080       0.02460263      -0.00327819       0.02190686
H       10.72160932      11.98532579       9.96235319      -0.01000736       0.08353185       0.00583871       0.00987019
C        9.51397463       9.65364891       9.79012330      -0.02483903      -0.05388397       0.00114937       0.05011850
O       10.33462684       8.88239577       9.90664507      -0.01358442      -0.05425051      -0.00370989      -0.08189555
4
Properties=species:S:1:pos:R:3:forces:R:3:charge:R:1 0=T 1=T energy=-193.39724763323372 free_energy=-193.39724763323372 dipole="0.08467813964607285 -0.01635804771493331 0.03916610146308786" pbc="F F F"
H       10.22079067      11.45191450       9.91503527       0.00726689       0.00195857      -0.00111024       0.01378783
H       10.63260063      12.10953409      10.10094199       0.00231260       0.00536501       0.00422831       0.00914728
C        9.58631288       9.59537562       9.60705451      -0.02238647      -0.01006334      -0.00851939       0.05138752
O       10.29382988       8.77489143       9.93155156       0.01280699       0.00273976       0.00540131      -0.07432263
4
Properties=species:S:1:pos:R:3:forces:R:3:charge:R:1 0=T 1=T energy=-193.39735735399378 free_energy=-193.39735735399378 dipole="0.07785537395095472 -0.014435336495359892 0.05298278034597246" pbc="F F F"
H       10.19910157      11.46282756       9.90883741      -0.00840575      -0.00589400      -0.00156664       0.01307991
H       10.54539638      12.13723972      10.15440227       0.01034670       0.00989226       0.00419149       0.00952327
C        9.65311696       9.58025977       9.53671802      -0.01423892       0.00311974      -0.01151718       0.05130385
O       10.31962385       8.78588997       9.98788411       0.01229797      -0.00711799       0.00889233      -0.07390703
4
Properties=species:S:1:pos:R:3:forces:R:3:charge:R:1 0=T 1=T energy=-193.39736920292947 free_energy=-193.39736920292947 dipole="0.07293926109252041 -0.00875540560229738 0.06138970437026332" pbc="F F F"
H       10.15779810      11.47773786       9.90179146      -0.00156914       0.00142704       0.00361163       0.01356741
H       10.47025027      12.15802145      10.17706768       0.00272294       0.00570788      -0.00111328       0.00968015
C        9.70645774       9.57895098       9.51863484       0.00311746      -0.01069067       0.00043905       0.05119089
O       10.35021363       8.82035801      10.05671878      -0.00427126       0.00355576      -0.00293740      -0.07443846
4
Properties=species:S:1:pos:R:3:forces:R:3:charge:R:1 0=T 1=T energy=-193.39742762325233 free_energy=-193.39742762325233 dipole="0.0636213862385836 -0.008013407590899394 0.07148715817865767" pbc="F F F"
H       10.12153185      11.50756055       9.91115385      -0.00184991      -0.00387050      -0.00191456       0.01290127
H       10.37523030      12.20201187      10.20846980       0.00161354       0.00456183       0.00173003       0.00962594
C        9.78099731       9.57955788       9.49672582      -0.01268535       0.01693658      -0.01410411       0.05116294
O       10.35910124       8.84726810      10.13554302       0.01292172      -0.01762791       0.01428864      -0.07369015
