4
 energy: -7.175648072567 gnorm: 0.000235367450 xtb: 6.7.1 (edcfbbe)
C            0.67551572150467        0.16260161999750        0.00000053682462
O            1.86770706610569        0.16260162029965        0.00002705983122
H            0.07781540593973        1.08979819652754       -0.00001354492816
H            0.07781540644991       -0.76459495682468        0.00002494827232
