4
 energy: -7.093176942414 gnorm: 0.000666623562 xtb: 6.7.1 (edcfbbe)
C            0.59127456984744        0.07107186388772       -0.00000000000000
O            1.88750978543515        0.22245999116606       -0.00000000000000
H            0.17558420111283        1.10517199465036        0.00000000000000
H            2.34394704360458       -0.64027774970413        0.00000000000000
