 Entering Gaussian System
 *********************************************
 Gaussian 98:
 frequency output generated by the xtb code
 *********************************************
                         Standard orientation:
 --------------------------------------------------------------------
  Center     Atomic     Atomic              Coordinates (Angstroms)
  Number     Number      Type              X           Y           Z
 --------------------------------------------------------------------
    1          6             0        1.088675   -0.164740   -0.050247
    2          6             0       -0.108398    0.532618    0.051739
    3          8             0       -1.105788   -0.265751   -0.021700
    4          1             0        2.010512    0.308914   -0.361410
    5          1             0       -0.276806    1.603160    0.107016
    6          1             0        1.262505   -0.903150    0.725842
    7          1             0       -0.031573   -1.090180   -0.306803
 --------------------------------------------------------------------
     1 basis functions        1 primitive gaussians
     1 alpha electrons        1 beta electrons

 Harmonic frequencies (cm**-1), IR intensities (km*mol⁻¹),
 Raman scattering activities (A**4/amu), Raman depolarization ratios,
 reduced masses (AMU), force constants (mDyne/A) and normal coordinates:
                      1                      2                      3
                        a                      a                      a 
 Frequencies -- -2109.7386               629.9989               670.1459
 Red. masses --     2.2300                 5.4707                 7.2018
 Frc consts  --     0.0000                 0.0000                 0.0000
 IR Inten    --   543.5802                 3.9036               166.1924
 Raman Activ --     0.0000                 0.0000                 0.0000
 Depolar     --     0.0000                 0.0000                 0.0000
 Atom AN      X      Y      Z        X      Y      Z        X      Y      Z
   1   6     0.04   0.16   0.03    -0.20   0.00  -0.08     0.25   0.22   0.19
   2   6     0.19   0.05  -0.02    -0.05   0.27  -0.24     0.03  -0.31  -0.27
   3   8     0.03  -0.17  -0.03     0.29  -0.18   0.22    -0.34   0.13   0.21
   4   1     0.03   0.08   0.11     0.19  -0.22   0.40     0.06   0.19   0.23
   5   1    -0.00  -0.01  -0.07    -0.07   0.05   0.12     0.14  -0.05  -0.19
   6   1    -0.08  -0.17  -0.19    -0.53  -0.17  -0.05     0.05  -0.37  -0.35
   7   1    -0.87   0.06   0.23     0.10   0.10  -0.23     0.15   0.04  -0.27
                      4                      5                      6
                        a                      a                      a 
 Frequencies --   825.0045               924.4336              1007.1264
 Red. masses --     3.5510                 4.3618                 5.7486
 Frc consts  --     0.0000                 0.0000                 0.0000
 IR Inten    --    71.3857                18.8318                14.6075
 Raman Activ --     0.0000                 0.0000                 0.0000
 Depolar     --     0.0000                 0.0000                 0.0000
 Atom AN      X      Y      Z        X      Y      Z        X      Y      Z
   1   6     0.09  -0.12  -0.36     0.23   0.15   0.10    -0.32  -0.28   0.19
   2   6     0.04  -0.20   0.02    -0.03  -0.16  -0.39     0.04   0.17  -0.33
   3   8    -0.10   0.12   0.06    -0.14   0.09   0.06     0.21  -0.04   0.08
   4   1     0.06   0.40   0.60     0.08  -0.14  -0.16    -0.34   0.45   0.05
   5   1     0.03  -0.05   0.02    -0.03  -0.09   0.74     0.14   0.05   0.28
   6   1    -0.04   0.37   0.32    -0.09   0.11   0.12     0.36  -0.07  -0.07
   7   1    -0.10  -0.10  -0.01    -0.11  -0.19   0.07    -0.03   0.13  -0.09
                      7                      8                      9
                        a                      a                      a 
 Frequencies --  1104.7061              1179.9051              1245.4448
 Red. masses --     3.4223                 2.4590                 6.7686
 Frc consts  --     0.0000                 0.0000                 0.0000
 IR Inten    --   132.3273                 9.3223                43.0624
 Raman Activ --     0.0000                 0.0000                 0.0000
 Depolar     --     0.0000                 0.0000                 0.0000
 Atom AN      X      Y      Z        X      Y      Z        X      Y      Z
   1   6    -0.26   0.17  -0.10    -0.14   0.21   0.03     0.23  -0.12  -0.11
   2   6    -0.09  -0.14   0.02     0.08  -0.08   0.06    -0.11   0.39  -0.01
   3   8     0.20   0.12  -0.08    -0.06  -0.19  -0.01    -0.35  -0.28  -0.04
   4   1    -0.01   0.05   0.17    -0.08  -0.01  -0.18     0.26  -0.19   0.24
   5   1     0.27   0.00   0.06     0.81   0.10  -0.02     0.29   0.16   0.14
   6   1    -0.05  -0.20  -0.25    -0.25   0.19   0.17     0.34  -0.03  -0.06
   7   1     0.22  -0.43   0.59    -0.05   0.04  -0.22     0.11   0.22   0.29
                     10                     11                     12
                        a                      a                      a 
 Frequencies --  1464.1562              1523.9921              1605.9720
 Red. masses --     3.9941                 6.8358                 7.9713
 Frc consts  --     0.0000                 0.0000                 0.0000
 IR Inten    --    45.5981               193.2656               277.8412
 Raman Activ --     0.0000                 0.0000                 0.0000
 Depolar     --     0.0000                 0.0000                 0.0000
 Atom AN      X      Y      Z        X      Y      Z        X      Y      Z
   1   6    -0.31   0.18   0.03    -0.36   0.19  -0.04    -0.20   0.08   0.03
   2   6    -0.14  -0.20  -0.03     0.51  -0.27  -0.04     0.55   0.30   0.02
   3   8     0.21   0.12   0.03    -0.15  -0.03  -0.03    -0.32  -0.20  -0.00
   4   1     0.26  -0.43   0.21    -0.01  -0.10   0.05    -0.00  -0.02   0.05
   5   1     0.06  -0.04  -0.04    -0.14  -0.13   0.09    -0.13   0.03  -0.01
   6   1     0.55   0.16  -0.03    -0.00   0.09   0.02     0.10   0.04  -0.02
   7   1    -0.19  -0.08  -0.27     0.19   0.55   0.27     0.07  -0.58  -0.19
                     13                     14                     15
                        a                      a                      a 
 Frequencies --  3002.6204              3028.2980              3061.3401
 Red. masses --     1.7683                 1.7781                 1.8204
 Frc consts  --     0.0000                 0.0000                 0.0000
 IR Inten    --     0.2304                42.5213                28.2901
 Raman Activ --     0.0000                 0.0000                 0.0000
 Depolar     --     0.0000                 0.0000                 0.0000
 Atom AN      X      Y      Z        X      Y      Z        X      Y      Z
   1   6     0.05  -0.18   0.18    -0.04  -0.00  -0.01    -0.22  -0.11   0.09
   2   6    -0.01   0.03   0.01    -0.05   0.26   0.01     0.01  -0.07  -0.00
   3   8    -0.00   0.00   0.00    -0.00   0.01   0.00     0.00   0.00   0.00
   4   1     0.00  -0.02   0.03     0.17   0.09  -0.06     0.80   0.41  -0.29
   5   1     0.02  -0.11  -0.01     0.14  -0.92  -0.05    -0.03   0.19   0.01
   6   1    -0.16   0.65  -0.68     0.01  -0.08   0.08    -0.04  -0.00  -0.01
   7   1     0.02   0.01   0.02     0.01   0.00  -0.00     0.00   0.01   0.01
