10
Properties=species:S:1:pos:R:3:forces:R:3:charge:R:1 0=T 2=T energy=-463.3762446801344 free_energy=-463.3762446801344 dipole="0.47659488312592013 -0.013311268507022782 0.08464863463158213" pbc="F F F"
C       11.23748266       9.24276696      10.03224688      -0.00870168      -0.00523672       0.00079556       0.07643946
C        9.13357385      10.01558251      10.06108180      -0.00737337       0.00941744      -0.00494788       0.13472933
C       11.25228100      10.75324593      10.32454987      -0.01316419       0.01018713      -0.00195914       0.07558987
O        9.90152582      11.14746094      10.18810900       0.00814618      -0.00562002       0.00411137      -0.27130100
O        9.88539321       8.87285648      10.18870841       0.00649509      -0.00601288       0.00458434      -0.26985252
H       11.56084827       9.02915215       9.00521789       0.00253860      -0.00167906      -0.00673512       0.04686804
H       11.86596456      11.31779754       9.61955131       0.00385715       0.00201111      -0.00171501       0.05286541
H        8.19842061      10.01104106      10.60306487      -0.00124280      -0.00036946      -0.00106185       0.05316667
H       11.84025985       8.66072056      10.73086201       0.00617476      -0.00311346       0.00341759       0.05478702
H       11.58261863      10.96957916      11.34835294       0.00327026       0.00041592       0.00351015       0.04670772
10
Properties=species:S:1:pos:R:3:forces:R:3:charge:R:1 0=T 2=T energy=-463.37536059347667 free_energy=-463.37536059347667 dipole="0.47866191424196325 -0.022086558641216694 0.0465499009652778" pbc="F F F"
C       11.14040214       9.58761424       9.98977312      -0.00092906       0.00958630      -0.00643680       0.07652687
C        9.05649120      10.40571997      10.11015207       0.00316292      -0.00260842      -0.00816541       0.13381865
C       11.20139149      11.10379038      10.25653621      -0.02310994       0.02437227      -0.00613518       0.07541541
O        9.85009783      11.51989459      10.23957469       0.04511022      -0.00567700      -0.00320195      -0.27070004
O        9.78880270       9.24655532      10.20070334       0.00773532      -0.00212120       0.00699315      -0.26967954
H       11.42050911       9.35473616       8.95437043       0.00528352      -0.01031656      -0.00825827       0.04664088
H       11.75601874      11.64272050       9.48368574      -0.00597235       0.00119338       0.00428157       0.05164441
H        8.13718095      10.41175599      10.67694032      -0.00966964       0.00332106       0.01453707       0.05366639
H       11.75790366       8.99916930      10.67093051      -0.00249591       0.01839738       0.01077350       0.05463662
H       11.63149461      11.34250380      11.23737707      -0.01911509      -0.03614721      -0.00438768       0.04803034
10
Properties=species:S:1:pos:R:3:forces:R:3:charge:R:1 0=T 2=T energy=-462.82629322130435 free_energy=-462.82629322130435 dipole="0.1403318818264506 -0.43132353225301295 -0.050204880256659666" pbc="F F F"
C       11.16123689       9.84037888       9.95192097      -0.01538063      -0.00586034      -0.01020968       0.07171837
C        8.97503402      10.72296492      10.44270875      -0.01165579      -0.00370221       0.00026478       0.34594039
C       11.67432137      11.19965470      10.08381552      -0.00611653       0.00420741       0.01048965      -0.10535983
O        9.29319204      11.87710945      10.40755444       0.03648251      -0.01798608      -0.00661390      -0.35990652
O        9.71745963       9.66883928      10.26783219       0.00749707      -0.01368269      -0.00924307      -0.25099456
H       11.25062747       9.46593748       8.92748391      -0.01262924      -0.00567719       0.00258851       0.06698590
H       11.69067757      11.85969171       9.23989353       0.01637148       0.00559170       0.02512204       0.06305216
H        7.93843928      10.38512747      10.64489836       0.01281781       0.01421901       0.01087443       0.03896686
H       11.63875978       9.14134605      10.64608340       0.00757953       0.01706798       0.00076628       0.07159269
H       11.97628846      11.57698025      11.04141669      -0.03496621       0.00582242      -0.02403904       0.05800453
10
Properties=species:S:1:pos:R:3:forces:R:3:charge:R:1 0=T 2=T energy=-462.83896173931436 free_energy=-462.83896173931436 dipole="0.16034700959911025 -0.4150549297565651 0.0535620385704933" pbc="F F F"
C       11.23978353       9.57748121      10.01936965      -0.00585352      -0.00999912      -0.00053588       0.07581655
C        9.01901694      10.38416742      10.24468032      -0.00999816       0.01986211      -0.01047681       0.34337369
C       11.72966165      10.91732237      10.33895221      -0.00884618      -0.01125360       0.03993378      -0.10731957
O        9.29937823      11.50182150       9.91926658      -0.01201276      -0.02929279      -0.00227441      -0.36131811
O        9.82378855       9.35930230      10.35726839      -0.00214460       0.01273051       0.00526913      -0.24968895
H       11.34372746       9.34736431       8.95571529       0.00167792       0.00686822      -0.01213339       0.06275084
H       12.02795760      11.59613442       9.56855736       0.00719491       0.01430618      -0.01890490       0.06563086
H        7.99570699      10.06142364      10.51423882       0.00851323       0.00249273       0.00180055       0.03733693
H       11.73287504       8.79748873      10.61297947       0.00874338      -0.00269069       0.00420671       0.07807548
H       11.68881101      11.26901540      11.35194610       0.01272579      -0.00302356      -0.00688478       0.05534229
10
Properties=species:S:1:pos:R:3:forces:R:3:charge:R:1 0=T 2=T energy=-462.8314881951352 free_energy=-462.8314881951352 dipole="0.22312077098131863 -0.34882538918791994 0.18674442867819438" pbc="F F F"
C       11.23015482       9.63056581      10.06535694      -0.00274197      -0.00068390       0.00258274       0.07776548
C        8.98065008      10.32950799      10.09591271      -0.00821370       0.01387614      -0.01177442       0.34128368
C       11.81007467      10.90468290      10.49740217      -0.00463018       0.02132107       0.03490375      -0.10518723
O        9.18942097      11.26186152       9.37807404      -0.00093599      -0.01691109       0.02729535      -0.36972498
O        9.85657160       9.45053363      10.53259262      -0.00150405      -0.00569871      -0.01496377      -0.25154070
H       11.22774665       9.54066248       8.97593115       0.00812001      -0.00089080      -0.00804198       0.06550030
H       12.08748921      11.65430356       9.78492146       0.01347453      -0.00986900       0.00126997       0.06942081
H        7.98725882      10.06619614      10.50199904      -0.00237789       0.00456378       0.00472837       0.03331197
H       11.74045893       8.76867322      10.51222394       0.00563669      -0.00572944       0.00504818       0.08139437
H       11.80079175      11.15492792      11.54244802      -0.00682743       0.00002196      -0.04104821       0.05777631
10
Properties=species:S:1:pos:R:3:forces:R:3:charge:R:1 0=T 2=T energy=-462.81868594918745 free_energy=-462.81868594918745 dipole="0.24009557440298654 -0.28368419077766055 0.2616483574807076" pbc="F F F"
C       11.21947357       9.69522329      10.09445185      -0.00050652      -0.00240190       0.00095547       0.07452652
C        8.94568994      10.34611312      10.02099759      -0.00937765      -0.00697383       0.00481817       0.34138987
C       11.86183067      10.93695262      10.53643050       0.00915033       0.01222288       0.02076000      -0.10134976
O        9.11923382      11.12568183       9.13260140      -0.00541715      -0.00394014       0.00778445      -0.37160282
O        9.84548955       9.58140961      10.59970636      -0.00700419      -0.00063044      -0.01454157      -0.25257868
H       11.16743147       9.63699846       9.00354532       0.00476059       0.00777667      -0.00120747       0.06916338
H       11.85941068      11.80239865       9.90322377       0.01197210      -0.01054253      -0.00606032       0.07119884
H        7.96543070      10.14604739      10.49145148      -0.00240771       0.00591462      -0.00005548       0.03302130
H       11.70333909       8.80812187      10.51108832       0.00587452      -0.00516570       0.00156801       0.07625919
H       12.15069120      11.04634446      11.56488574      -0.00704433       0.00374037      -0.01402125       0.05997215
10
Properties=species:S:1:pos:R:3:forces:R:3:charge:R:1 0=T 2=T energy=-462.81927348357766 free_energy=-462.81927348357766 dipole="0.24741435011545276 -0.24642167860756117 0.30027020937551074" pbc="F F F"
C       11.20369411       9.75104902      10.12725811       0.00798256       0.00059854      -0.00236329       0.07379055
C        8.91928830      10.36807124       9.96240801      -0.00410178       0.00308143      -0.00902589       0.34152536
C       11.87981472      10.97740048      10.56218476       0.00886883       0.00323246       0.01010689      -0.10164405
O        9.08216029      11.02548616       8.97783936      -0.01206168      -0.01452565       0.00680463      -0.37283049
O        9.82660595       9.69013776      10.62961558      -0.01216335       0.00366658      -0.00082528      -0.25137741
H       11.13708035       9.70338772       9.03332784       0.00141145       0.00858972       0.00042951       0.07655200
H       11.64974025      11.90659065      10.07694833      -0.00297079      -0.00517069      -0.00147132       0.06922917
H        7.94335768      10.22673318      10.46216858      -0.00322723       0.00463717      -0.00464236       0.03282176
H       11.66745939       8.85068893      10.53142570       0.00316372      -0.00175400       0.00157325       0.07119666
H       12.45558395      10.99231994      11.46647568       0.01309827      -0.00235556      -0.00058613       0.06073644
10
Properties=species:S:1:pos:R:3:forces:R:3:charge:R:1 0=T 2=T energy=-462.8276295254941 free_energy=-462.8276295254941 dipole="0.25583507662510824 -0.2228129401224901 0.3193783199093414" pbc="F F F"
C       11.18072249       9.81883028      10.15528805       0.00886515       0.00307296      -0.00235075       0.07470365
C        8.89283262      10.39331250       9.91902462      -0.00268624       0.00656199      -0.02077955       0.34120912
C       11.88695995      11.02826327      10.58750360       0.00614469      -0.00027751       0.00315724      -0.10504697
O        9.04897317      10.93730103       8.86597814      -0.01204923      -0.01845156       0.01118042      -0.37414592
O        9.80696927       9.79742886      10.65260578      -0.01001846       0.00902003       0.00693773      -0.24938184
H       11.10888085       9.77615550       9.05780254      -0.00075335       0.00498489      -0.00128259       0.08339370
H       11.53616315      11.98566667      10.25262229      -0.00668967      -0.00326393       0.00759353       0.06604476
H        7.91982899      10.30498455      10.43534757      -0.00358802       0.00224013      -0.00513848       0.03261294
H       11.63123491       8.90622920      10.54573233       0.00252674       0.00165445       0.00164359       0.07010190
H       12.66397434      10.98539595      11.32312838       0.01824840      -0.00554143      -0.00096114       0.06050868
10
Properties=species:S:1:pos:R:3:forces:R:3:charge:R:1 0=T 2=T energy=-462.836519175395 free_energy=-462.836519175395 dipole="0.2617712786558241 -0.19414356576399477 0.33184721721633714" pbc="F F F"
C       11.15180165       9.91135603      10.17762324       0.00287124       0.00363372       0.00017709       0.07587454
C        8.86146973      10.43096863       9.88208776      -0.00507039       0.00321839      -0.01776979       0.34065011
C       11.89583397      11.09633870      10.61240109       0.00810515       0.00024888      -0.00066216      -0.10921574
O        9.00738921      10.84416575       8.76950696      -0.00828088      -0.01291749       0.00617434      -0.37523267
O        9.78575657       9.93385507      10.67518392      -0.00696440       0.01022971       0.00990997      -0.24679811
H       11.07560020       9.87047707       9.07713647      -0.00048957       0.00123353      -0.00235777       0.08816868
H       11.48589513      12.07002737      10.42598762      -0.00376080      -0.00218639       0.01112247       0.06340754
H        7.89267328      10.40031480      10.41160068      -0.00224559      -0.00089929      -0.00386656       0.03283168
H       11.58630410       8.98440090      10.55462580       0.00187282       0.00074969      -0.00106000       0.07056510
H       12.81068559      11.00797983      11.16057571       0.01396241      -0.00331075      -0.00166760       0.05974886
10
Properties=species:S:1:pos:R:3:forces:R:3:charge:R:1 0=T 2=T energy=-462.8428718593877 free_energy=-462.8428718593877 dipole="0.26421768201857787 -0.1555595338003177 0.34139994638224674" pbc="F F F"
C       11.12346608      10.02046611      10.18692282      -0.00209280       0.00329754       0.00219441       0.07641881
C        8.82638422      10.47420317       9.85311779      -0.00557209      -0.00148430      -0.00515507       0.34011965
C       11.91358248      11.17066095      10.63250997       0.00803294       0.00016249      -0.00242359      -0.11247523
O        8.95458648      10.74467177       8.69527513      -0.00331088      -0.00734600      -0.00239157      -0.37591005
O        9.76669308      10.09270477      10.69088995      -0.00583867       0.00712980       0.00487102      -0.24466294
H       11.04063585       9.98796502       9.08457536      -0.00024949      -0.00006723       0.00045088       0.09100729
H       11.49395905      12.15518638      10.56649615       0.00016019       0.00058952       0.00973691       0.06217632
H        7.86434342      10.50057345      10.39412919      -0.00022971      -0.00080349      -0.00225673       0.03348644
H       11.53338982       9.07365310      10.54583704       0.00289060       0.00167288      -0.00257705       0.07080231
H       12.89411012      11.04186152      11.04116766       0.00620990      -0.00315121      -0.00244920       0.05903739
10
Properties=species:S:1:pos:R:3:forces:R:3:charge:R:1 0=T 2=T energy=-462.8469060250709 free_energy=-462.8469060250709 dipole="0.26438590257692285 -0.11006057013943162 0.34764861620268234" pbc="F F F"
C       11.09217449      10.15213539      10.18580655      -0.00063747       0.00302588       0.00294359       0.07692917
C        8.78771253      10.53224533       9.82540052      -0.00466941      -0.00249899       0.00815452       0.33957016
C       11.93239476      11.25759200      10.65169856       0.00299054      -0.00044303      -0.00202247      -0.11536754
O        8.89844537      10.65059567       8.64044827      -0.00037959      -0.00335248      -0.01121431      -0.37635778
O        9.74445667      10.27779745      10.69288899      -0.00200673       0.00366521      -0.00100208      -0.24287910
H       11.00735155      10.13422326       9.08186134       0.00094708       0.00038017       0.00433303       0.09273244
H       11.52630344      12.24829679      10.69969360       0.00240082      -0.00095709       0.00476639       0.06213430
H        7.83223835      10.61743759      10.37105120       0.00002490      -0.00011475      -0.00044609       0.03417760
H       11.46958527       9.18201319      10.52270737       0.00061970       0.00142203      -0.00351639       0.07065970
H       12.94542508      11.08587017      10.95068734       0.00071016      -0.00112695      -0.00199619       0.05840105
10
Properties=species:S:1:pos:R:3:forces:R:3:charge:R:1 0=T 2=T energy=-462.848218064167 free_energy=-462.848218064167 dipole="0.2638143252430995 -0.07171155874934468 0.347235135882636" pbc="F F F"
C       11.05813367      10.29514171      10.18038034      -0.00157910      -0.00027699       0.00095239       0.07795407
C        8.75085982      10.61539813       9.79707346       0.00113124      -0.00023849      -0.01358197       0.33888550
C       11.93938237      11.35461120      10.67588079       0.00580368      -0.00158969      -0.01133854      -0.11791927
O        8.85444477      10.61037046       8.60513780      -0.00154172      -0.00142252       0.01984093      -0.37688544
O        9.71623567      10.46543205      10.67992916      -0.00020933       0.00132419      -0.00423511      -0.24120308
H       10.98375777      10.29571958       9.07479128      -0.00005482      -0.00010450       0.00026777       0.09308433
H       11.55448224      12.34319570      10.82394636      -0.00156525       0.00069834       0.00535019       0.06291455
H        7.79776892      10.74754044      10.33688158       0.00121368       0.00074809      -0.00198076       0.03465043
H       11.40102187       9.30301627      10.49486525       0.00028579       0.00000020      -0.00011752       0.07061131
H       12.97159578      11.15092968      10.87160050      -0.00348418       0.00086136       0.00484261       0.05790760
