4
 energy: -7.107224433554 gnorm: 0.000721189050 xtb: 6.7.1 (edcfbbe)
H           10.12153185198556       11.50756054775479        9.91115384808322
H           10.37523029524947       12.20201186990761       10.20846980402936
C            9.78099730763811        9.57955788256379        9.49672581818253
O           10.35910124412742        8.84726809877273       10.13554301670403
