4
 energy: -7.175647957676 gnorm: 0.000257446311 xtb: 6.7.1 (edcfbbe)
H            9.27289837497544       11.04545023731324        9.85539227133638
H           11.12635376163660       11.04553034510447        9.85538860300635
C           10.19965038085243       10.44754387899797        9.85527288493677
O           10.19970006453552        9.25542411958432        9.85572549672050
