4
Properties=species:S:1:pos:R:3:forces:R:3:charge:R:1 energy:=T -7.175647957676=T gnorm:=T 0.000257446311=T xtb:=T 6.7.1=T (edcfbbe)=T energy=-192.21483518560615 free_energy=-192.21483518560615 dipole="-0.15789186181175469 0.19623210647617537 -0.042868323237330794" pbc="F F F"
H        9.72808124      11.20313142       9.76839380       1.00005113       0.22035303       0.27707828       0.18174285
H       10.85983907      11.52237685      10.07546825      -0.29901656       0.51583581      -0.08524149      -0.14282669
C        9.72440650      10.06392752       9.77032993      -0.82471927      -0.74247792      -0.22839548       0.10542297
O       10.41479199       9.15586262       9.95348480       0.12368471       0.00628908       0.03655869      -0.14433913
