3
 energy: -5.504066121168 gnorm: 0.000400418490 xtb: 6.7.1 (edcfbbe)
H            9.99804457496868       11.95689514527982        9.76253818777007
C            9.97174989505268       10.90150386345066        9.69049680799508
N            9.94351011097864        9.76697171826951        9.61300030623485
