 Entering Gaussian System
 *********************************************
 Gaussian 98:
 frequency output generated by the xtb code
 *********************************************
                         Standard orientation:
 --------------------------------------------------------------------
  Center     Atomic     Atomic              Coordinates (Angstroms)
  Number     Number      Type              X           Y           Z
 --------------------------------------------------------------------
    1          6             0        0.062197   -0.740618    0.000001
    2          6             0        0.062204    0.513550   -0.000001
    3          1             0        0.282341    1.558104   -0.000004
    4          1             0       -1.028747   -0.195702    0.000004
 --------------------------------------------------------------------
     1 basis functions        1 primitive gaussians
     1 alpha electrons        1 beta electrons

 Harmonic frequencies (cm**-1), IR intensities (km*mol⁻¹),
 Raman scattering activities (A**4/amu), Raman depolarization ratios,
 reduced masses (AMU), force constants (mDyne/A) and normal coordinates:
                      1                      2                      3
                        a                      a                      a 
 Frequencies --  -937.3633               723.5480               835.2945
 Red. masses --     2.2942                 3.7941                 3.7062
 Frc consts  --     0.0000                 0.0000                 0.0000
 IR Inten    --    40.1648                69.0683                17.3876
 Raman Activ --     0.0000                 0.0000                 0.0000
 Depolar     --     0.0000                 0.0000                 0.0000
 Atom AN      X      Y      Z        X      Y      Z        X      Y      Z
   1   6     0.20  -0.18  -0.00     0.00   0.00   0.18     0.21   0.05  -0.00
   2   6    -0.19  -0.08   0.00    -0.00  -0.00  -0.47    -0.45   0.02   0.00
   3   1    -0.10  -0.02   0.00     0.00  -0.00   0.85     0.84  -0.20  -0.00
   4   1     0.06   0.93  -0.00     0.00  -0.00   0.17    -0.03  -0.04  -0.00
                      4                      5                      6
                        a                      a                      a 
 Frequencies --  1888.4119              2214.0787              3163.3496
 Red. masses --    10.9145                 1.7699                 2.2049
 Frc consts  --     0.0000                 0.0000                 0.0000
 IR Inten    --     4.1926                 5.7678                32.1385
 Raman Activ --     0.0000                 0.0000                 0.0000
 Depolar     --     0.0000                 0.0000                 0.0000
 Atom AN      X      Y      Z        X      Y      Z        X      Y      Z
   1   6    -0.04  -0.69   0.00    -0.16   0.14   0.00    -0.00   0.05  -0.00
   2   6    -0.03   0.65  -0.00    -0.11  -0.11   0.00    -0.06  -0.32   0.00
   3   1     0.08   0.24  -0.00    -0.00  -0.07   0.00     0.19   0.92  -0.00
   4   1     0.17  -0.07  -0.00     0.96  -0.03  -0.00     0.02   0.01  -0.00
