 Entering Gaussian System, Link 0=g16
 Initial command:
 /sw/isaac/applications/gaussian/16C01/rhel8_cascadelake_binary_x86_64_avx2/g16/l1.exe "/lustre/isaac24/scratch/usuresh3/paper/berny_results/hcch/Gau-1282849.inp" -scrdir="/lustre/isaac24/scratch/usuresh3/paper/berny_results/hcch/"
 Entering Link 1 = /sw/isaac/applications/gaussian/16C01/rhel8_cascadelake_binary_x86_64_avx2/g16/l1.exe PID=   1282850.
  
 Copyright (c) 1988-2019, Gaussian, Inc.  All Rights Reserved.
  
 This is part of the Gaussian(R) 16 program.  It is based on
 the Gaussian(R) 09 system (copyright 2009, Gaussian, Inc.),
 the Gaussian(R) 03 system (copyright 2003, Gaussian, Inc.),
 the Gaussian(R) 98 system (copyright 1998, Gaussian, Inc.),
 the Gaussian(R) 94 system (copyright 1995, Gaussian, Inc.),
 the Gaussian 92(TM) system (copyright 1992, Gaussian, Inc.),
 the Gaussian 90(TM) system (copyright 1990, Gaussian, Inc.),
 the Gaussian 88(TM) system (copyright 1988, Gaussian, Inc.),
 the Gaussian 86(TM) system (copyright 1986, Carnegie Mellon
 University), and the Gaussian 82(TM) system (copyright 1983,
 Carnegie Mellon University). Gaussian is a federally registered
 trademark of Gaussian, Inc.
  
 This software contains proprietary and confidential information,
 including trade secrets, belonging to Gaussian, Inc.
  
 This software is provided under written license and may be
 used, copied, transmitted, or stored only in accord with that
 written license.
  
 The following legend is applicable only to US Government
 contracts under FAR:
  
                    RESTRICTED RIGHTS LEGEND
  
 Use, reproduction and disclosure by the US Government is
 subject to restrictions as set forth in subparagraphs (a)
 and (c) of the Commercial Computer Software - Restricted
 Rights clause in FAR 52.227-19.
  
 Gaussian, Inc.
 340 Quinnipiac St., Bldg. 40, Wallingford CT 06492
  
  
 ---------------------------------------------------------------
 Warning -- This program may not be used in any manner that
 competes with the business of Gaussian, Inc. or will provide
 assistance to any competitor of Gaussian, Inc.  The licensee
 of this program is prohibited from giving any competitor of
 Gaussian, Inc. access to this program.  By using this program,
 the user acknowledges that Gaussian, Inc. is engaged in the
 business of creating and licensing software in the field of
 computational chemistry and represents and warrants to the
 licensee that it is not a competitor of Gaussian, Inc. and that
 it will not use this program in any manner prohibited above.
 ---------------------------------------------------------------
  

 Cite this work as:
 Gaussian 16, Revision C.01,
 M. J. Frisch, G. W. Trucks, H. B. Schlegel, G. E. Scuseria, 
 M. A. Robb, J. R. Cheeseman, G. Scalmani, V. Barone, 
 G. A. Petersson, H. Nakatsuji, X. Li, M. Caricato, A. V. Marenich, 
 J. Bloino, B. G. Janesko, R. Gomperts, B. Mennucci, H. P. Hratchian, 
 J. V. Ortiz, A. F. Izmaylov, J. L. Sonnenberg, D. Williams-Young, 
 F. Ding, F. Lipparini, F. Egidi, J. Goings, B. Peng, A. Petrone, 
 T. Henderson, D. Ranasinghe, V. G. Zakrzewski, J. Gao, N. Rega, 
 G. Zheng, W. Liang, M. Hada, M. Ehara, K. Toyota, R. Fukuda, 
 J. Hasegawa, M. Ishida, T. Nakajima, Y. Honda, O. Kitao, H. Nakai, 
 T. Vreven, K. Throssell, J. A. Montgomery, Jr., J. E. Peralta, 
 F. Ogliaro, M. J. Bearpark, J. J. Heyd, E. N. Brothers, K. N. Kudin, 
 V. N. Staroverov, T. A. Keith, R. Kobayashi, J. Normand, 
 K. Raghavachari, A. P. Rendell, J. C. Burant, S. S. Iyengar, 
 J. Tomasi, M. Cossi, J. M. Millam, M. Klene, C. Adamo, R. Cammi, 
 J. W. Ochterski, R. L. Martin, K. Morokuma, O. Farkas, 
 J. B. Foresman, and D. J. Fox, Gaussian, Inc., Wallingford CT, 2019.
 
 ******************************************
 Gaussian 16:  ES64L-G16RevC.01  3-Jul-2019
                 9-Jul-2026 
 ******************************************
 %nprocshared=2
 Will use up to    2 processors via shared memory.
 %mem=2GB
 %chk=hcch.chk
 ----------------------------------------------------------------------
 #p External="/lustre/isaac24/scratch/usuresh3/xtb-gaussian/xtb-g" Opt=
 (TS, CalcFC, NoEigenTest, NoMicro)
 ----------------------------------------------------------------------
 1/5=1,10=4,11=1,18=20,26=1,38=1/1,3;
 2/9=110,12=2,17=6,18=5,40=1/2;
 3/11=9,25=1,30=1,41=9900000,43=2,71=2,140=1/1;
 4/20=17,22=2,24=3,113=1,114=1/2;
 6/7=2,8=2,9=2,10=2/1;
 7/25=1,44=-1/16;
 1/5=1,10=4,11=1,18=20,26=1/3(2);
 2/9=110/2;
 99//99;
 2/9=110/2;
 3/11=9,25=1,30=1,41=9900000,43=2,71=1/1;
 4/16=2,20=17,22=1,24=3,113=1,114=1/2;
 7/44=-1/16;
 1/5=1,11=1,18=20,26=1/3(-4);
 2/9=110/2;
 6/7=2,8=2,9=2,10=2/1;
 99/9=10/99;
 Leave Link    1 at Thu Jul  9 07:41:37 2026, MaxMem=   268435456 cpu:               0.1 elap:               0.1
 (Enter /sw/isaac/applications/gaussian/16C01/rhel8_cascadelake_binary_x86_64_avx2/g16/l101.exe)
 --------------------------------------
 Title: hcch ts search via xTB-Gaussian
 --------------------------------------
 Symbolic Z-matrix:
 Charge =  0 Multiplicity = 1
 C                    -0.7321   -0.12811   0. 
 C                     0.51705  -0.01608   0. 
 H                     1.5771   -0.14202   0. 
 H                    -0.28682   1.00715   0. 
 
 ITRead=  0  0  0  0
 MicOpt= -1 -1 -1 -1
 NAtoms=      4 NQM=        4 NQMF=       0 NMMI=      0 NMMIF=      0
                NMic=       0 NMicF=      0.
                    Isotopes and Nuclear Properties:
 (Nuclear quadrupole moments (NQMom) in fm**2, nuclear magnetic moments (NMagM)
  in nuclear magnetons)

  Atom         1           2           3           4
 IAtWgt=          12          12           1           1
 AtmWgt=  12.0000000  12.0000000   1.0078250   1.0078250
 NucSpn=           0           0           1           1
 AtZEff=  -0.0000000  -0.0000000  -0.0000000  -0.0000000
 NQMom=    0.0000000   0.0000000   0.0000000   0.0000000
 NMagM=    0.0000000   0.0000000   2.7928460   2.7928460
 AtZNuc=   6.0000000   6.0000000   1.0000000   1.0000000
 Leave Link  101 at Thu Jul  9 07:41:37 2026, MaxMem=   268435456 cpu:               0.1 elap:               0.1
 (Enter /sw/isaac/applications/gaussian/16C01/rhel8_cascadelake_binary_x86_64_avx2/g16/l103.exe)

 GradGradGradGradGradGradGradGradGradGradGradGradGradGradGradGradGradGrad
 Berny optimization.
 Initialization pass.
                           ----------------------------
                           !    Initial Parameters    !
                           ! (Angstroms and Degrees)  !
 --------------------------                            --------------------------
 ! Name  Definition              Value          Derivative Info.                !
 --------------------------------------------------------------------------------
 ! R1    R(1,2)                  1.2542         calculate D2E/DX2 analytically  !
 ! R2    R(1,4)                  1.2195         calculate D2E/DX2 analytically  !
 ! R3    R(2,3)                  1.0675         calculate D2E/DX2 analytically  !
 ! A1    A(2,1,4)               63.4586         calculate D2E/DX2 analytically  !
 ! A2    L(1,2,3,4,-1)         191.9005         calculate D2E/DX2 analytically  !
 ! A3    L(1,2,3,4,-2)         180.0            calculate D2E/DX2 analytically  !
 --------------------------------------------------------------------------------
 Trust Radius=3.00D-01 FncErr=1.00D-07 GrdErr=1.00D-07 EigMax=2.50D+02 EigMin=1.00D-04
 Number of steps in this run=     20 maximum allowed number of steps=    100.
 Search for a saddle point of order  1.
 GradGradGradGradGradGradGradGradGradGradGradGradGradGradGradGradGradGrad

 Leave Link  103 at Thu Jul  9 07:41:37 2026, MaxMem=   268435456 cpu:               0.0 elap:               0.0
 (Enter /sw/isaac/applications/gaussian/16C01/rhel8_cascadelake_binary_x86_64_avx2/g16/l202.exe)
                          Input orientation:                          
 ---------------------------------------------------------------------
 Center     Atomic      Atomic             Coordinates (Angstroms)
 Number     Number       Type             X           Y           Z
 ---------------------------------------------------------------------
      1          6           0       -0.732100   -0.128110    0.000000
      2          6           0        0.517054   -0.016078    0.000000
      3          1           0        1.577097   -0.142022    0.000000
      4          1           0       -0.286820    1.007151    0.000000
 ---------------------------------------------------------------------
                    Distance matrix (angstroms):
                    1          2          3          4
     1  C    0.000000
     2  C    1.254168   0.000000
     3  H    2.309239   1.067499   0.000000
     4  H    1.219464   1.301234   2.189700   0.000000
 Stoichiometry    C2H2
 Framework group  CS[SG(C2H2)]
 Deg. of freedom     5
 Full point group                 CS      NOp   2
 Largest Abelian subgroup         CS      NOp   2
 Largest concise Abelian subgroup C1      NOp   1
                         Standard orientation:                         
 ---------------------------------------------------------------------
 Center     Atomic      Atomic             Coordinates (Angstroms)
 Number     Number       Type             X           Y           Z
 ---------------------------------------------------------------------
      1          6           0        0.062201   -0.740617    0.000000
      2          6           0        0.062201    0.513551    0.000000
      3          1           0        0.282333    1.558106    0.000000
      4          1           0       -1.028746   -0.195707    0.000000
 ---------------------------------------------------------------------
 Rotational constants (GHZ):         423.0875045          41.4712871          37.7691343
 Leave Link  202 at Thu Jul  9 07:41:37 2026, MaxMem=   268435456 cpu:               0.0 elap:               0.0
 (Enter /sw/isaac/applications/gaussian/16C01/rhel8_cascadelake_binary_x86_64_avx2/g16/l301.exe)
 Standard basis: STO-3G (5D, 7F)
 Ernie: Thresh=  0.10000D-02 Tol=  0.10000D-05 Strict=F.
 There are    10 symmetry adapted cartesian basis functions of A'  symmetry.
 There are     2 symmetry adapted cartesian basis functions of A"  symmetry.
 There are    10 symmetry adapted basis functions of A'  symmetry.
 There are     2 symmetry adapted basis functions of A"  symmetry.
    12 basis functions,    36 primitive gaussians,    12 cartesian basis functions
     7 alpha electrons        7 beta electrons
       nuclear repulsion energy        24.8242605377 Hartrees.
 IExCor=    0 DFT=F Ex=HF Corr=None ExCW=0 ScaHFX=  1.000000
 ScaDFX=  1.000000  1.000000  1.000000  1.000000 ScalE2=  1.000000  1.000000
 IRadAn=      5 IRanWt=     -1 IRanGd=            0 ICorTp=0 IEmpDi=  4
 NAtoms=    4 NActive=    4 NUniq=    4 SFac= 1.00D+00 NAtFMM=   60 NAOKFM=F Big=F
 Integral buffers will be    131072 words long.
 Raffenetti 1 integral format.
 Two-electron integral symmetry is turned on.
 Leave Link  301 at Thu Jul  9 07:41:38 2026, MaxMem=   268435456 cpu:               0.0 elap:               0.0
 (Enter /sw/isaac/applications/gaussian/16C01/rhel8_cascadelake_binary_x86_64_avx2/g16/l402.exe)
 External calculation of energy, first and second derivatives.
 Running external command "/lustre/isaac24/scratch/usuresh3/xtb-gaussian/xtb-g R"
         input file       "/lustre/isaac24/scratch/usuresh3/paper/berny_results/hcch/Gau-1282850.EIn"
         output file      "/lustre/isaac24/scratch/usuresh3/paper/berny_results/hcch/Gau-1282850.EOu"
         message file     "/lustre/isaac24/scratch/usuresh3/paper/berny_results/hcch/Gau-1282850.EMs"
         fchk file        "/lustre/isaac24/scratch/usuresh3/paper/berny_results/hcch/Gau-1282850.EFC"
         mat. el file     "/lustre/isaac24/scratch/usuresh3/paper/berny_results/hcch/Gau-1282850.EUF"

 ExternalExternalExternalExternalExternalExternalExternalExternalExternalExternal
 Output from external command:
 "/lustre/isaac24/scratch/usuresh3/xtb-gaussian/xtb-g R /lustre/isaac24/scratch/usuresh3/paper/berny_results/hcch/Gau-1282850.EIn /lustre/isaac24/scratch/usuresh3/paper/berny_results/hcch/Gau-1282850.EOu /lustre/isaac24/scratch/usuresh3/paper/berny_results/hcch/Gau-1282850.EMs /lustre/isaac24/scratch/usuresh3/paper/berny_results/hcch/Gau-1282850.EFC /lustre/isaac24/scratch/usuresh3/paper/berny_results/hcch/Gau-1282850.EUF"
 Note: The following floating-point exceptions are signalling: IEEE_DENORMAL
 normal termination of xtb
  
 ------- xtb command was ---------
 ?> xtb ./Gau-1282850.EIn  --hess --charge 0  >/dev/null 2>Gau-1282850.EMs
 ---------------------------------
              Control returned to Gaussian.
 ~~~~~~~~~~~~~~~~~~~~~~~~~~~~~~~~~~~~~~~~~~~~~~~~~~~~~~~~~~~~~~~~~~~~~~~~~
 ExternalExternalExternalExternalExternalExternalExternalExternalExternalExternal

 Recovered energy= -5.11069804457     dipole=     -0.659326601609      0.913948800671      0.000000000000
 Energy=    -5.11069804     NIter=   0.
 Dipole moment=      -0.659327       0.913949       0.000000
 Leave Link  402 at Thu Jul  9 07:41:38 2026, MaxMem=   268435456 cpu:               0.1 elap:               0.1
 (Enter /sw/isaac/applications/gaussian/16C01/rhel8_cascadelake_binary_x86_64_avx2/g16/l601.exe)
 Leave Link  601 at Thu Jul  9 07:41:38 2026, MaxMem=   268435456 cpu:               0.0 elap:               0.0
 (Enter /sw/isaac/applications/gaussian/16C01/rhel8_cascadelake_binary_x86_64_avx2/g16/l716.exe)
 Dipole        =-6.59326602D-01 9.13948801D-01 9.75181496D-16
 ***** Axes restored to original set *****
 -------------------------------------------------------------------
 Center     Atomic                   Forces (Hartrees/Bohr)
 Number     Number              X              Y              Z
 -------------------------------------------------------------------
      1        6           0.000511122   -0.004881666    0.000000000
      2        6          -0.000449377    0.004908721   -0.000000000
      3        1          -0.000065720    0.000005317    0.000000000
      4        1           0.000003975   -0.000032372   -0.000000000
 -------------------------------------------------------------------
 Cartesian Forces:  Max     0.004908721 RMS     0.002008208
 Force constants in Cartesian coordinates: 
                1             2             3             4             5 
      1  0.816719D+00
      2  0.541467D-01  0.631815D-01
      3 -0.147905D-05  0.000000D+00  0.740260D-02
      4 -0.833528D+00 -0.842335D-01  0.140221D-05  0.116822D+01
      5 -0.451513D-01  0.250131D-01  0.000000D+00  0.256564D-01  0.914793D-01
      6  0.151733D-05  0.000000D+00 -0.197800D-01 -0.223796D-05  0.000000D+00
      7 -0.241343D-01 -0.959451D-03  0.000000D+00 -0.321347D+00  0.391201D-01
      8  0.742914D-02  0.181603D-01  0.000000D+00  0.332968D-01 -0.441811D-01
      9  0.000000D+00  0.000000D+00  0.102992D-01  0.000000D+00  0.000000D+00
     10  0.409431D-01  0.310462D-01  0.000000D+00 -0.133452D-01 -0.196252D-01
     11 -0.164245D-01 -0.106355D+00  0.000000D+00  0.252802D-01 -0.723113D-01
     12  0.000000D+00  0.000000D+00  0.207818D-02  0.000000D+00  0.000000D+00
                6             7             8             9            10 
      6  0.528526D-01
      7  0.000000D+00  0.344925D+00
      8  0.000000D+00 -0.386522D-01  0.244199D-01
      9 -0.275197D-01  0.000000D+00  0.000000D+00  0.143292D-01
     10  0.000000D+00  0.556837D-03 -0.207366D-02  0.000000D+00 -0.281547D-01
     11  0.000000D+00  0.491590D-03  0.160097D-02  0.000000D+00 -0.934731D-02
     12 -0.555294D-02  0.000000D+00  0.000000D+00  0.289135D-02  0.000000D+00
               11            12 
     11  0.177065D+00
     12  0.000000D+00  0.583418D-03
 FormGI is forming the generalized inverse of G from B-inverse, IUseBI=4.
 Force constants in internal coordinates: 
                1             2             3             4             5 
      1  0.874751D+00
      2  0.122991D-01  0.143536D+00
      3  0.240768D-01  0.774277D-03  0.349430D+00
      4  0.479710D-01  0.177608D+00 -0.187850D-02  0.313900D-01
      5  0.763933D-02 -0.125408D-02 -0.128662D-02 -0.105003D-01  0.804399D-01
      6 -0.107081D-05  0.000000D+00  0.000000D+00  0.000000D+00  0.000000D+00
                6 
      6  0.266146D-01
 Leave Link  716 at Thu Jul  9 07:41:38 2026, MaxMem=   268435456 cpu:               0.0 elap:               0.0
 (Enter /sw/isaac/applications/gaussian/16C01/rhel8_cascadelake_binary_x86_64_avx2/g16/l103.exe)

 GradGradGradGradGradGradGradGradGradGradGradGradGradGradGradGradGradGrad
 Berny optimization.
 Red2BG is reusing G-inverse.
 Internal  Forces:  Max     0.004163621 RMS     0.002014169
 Search for a saddle point.
 Step number   1 out of a maximum of   20
 All quantities printed in internal units (Hartrees-Bohrs-Radians)
 Swapping is turned off.
 Second derivative matrix not updated -- analytic derivatives used.
 The second derivative matrix:
                          R1        R2        R3        A1        A2
           R1           0.87475
           R2           0.01230   0.14354
           R3           0.02408   0.00077   0.34943
           A1           0.04797   0.17761  -0.00188   0.03139
           A2           0.00764  -0.00125  -0.00129  -0.01050   0.08044
           A3          -0.00000  -0.00000   0.00000  -0.00000   0.00000
                          A3
           A3           0.02661
 ITU=  0
     Eigenvalues ---   -0.10017   0.02661   0.08042   0.27155   0.34842
     Eigenvalues ---    0.87932
 Eigenvectors required to have negative eigenvalues:
                          A1        R2        A2        R1        R3
   1                    0.80780  -0.58683   0.04432  -0.03285   0.00627
                          A3
   1                   -0.00000
 RFO step:  Lambda0=4.664371873D-05 Lambda=-2.27437116D-04.
 Linear search not attempted -- option 19 set.
 Iteration  1 RMS(Cart)=  0.03269338 RMS(Int)=  0.00077413
 Iteration  2 RMS(Cart)=  0.00071934 RMS(Int)=  0.00000004
 Iteration  3 RMS(Cart)=  0.00000005 RMS(Int)=  0.00000000
 ITry= 1 IFail=0 DXMaxC= 4.78D-02 DCOld= 1.00D+10 DXMaxT= 3.00D-01 DXLimC= 3.00D+00 Rises=F
 ClnCor:  largest displacement from symmetrization is 2.25D-07 for atom     2.
 Variable       Old X    -DE/DX   Delta X   Delta X   Delta X     New X
                                 (Linear)    (Quad)   (Total)
    R1        2.37003  -0.00108   0.00000  -0.00243  -0.00243   2.36761
    R2        2.30445   0.00123   0.00000  -0.01054  -0.01054   2.29392
    R3        2.01728  -0.00032   0.00000  -0.00044  -0.00044   2.01684
    A1        1.10756  -0.00205   0.00000   0.01601   0.01601   1.12357
    A2        3.34930   0.00416   0.00000   0.05376   0.05376   3.40306
    A3        3.14159  -0.00000   0.00000  -0.00000   0.00000   3.14159
         Item               Value     Threshold  Converged?
 Maximum Force            0.004164     0.000450     NO 
 RMS     Force            0.002014     0.000300     NO 
 Maximum Displacement     0.047815     0.001800     NO 
 RMS     Displacement     0.032505     0.001200     NO 
 Predicted change in Energy=-9.070494D-05
 GradGradGradGradGradGradGradGradGradGradGradGradGradGradGradGradGradGrad

 Leave Link  103 at Thu Jul  9 07:41:38 2026, MaxMem=   268435456 cpu:               0.0 elap:               0.0
 (Enter /sw/isaac/applications/gaussian/16C01/rhel8_cascadelake_binary_x86_64_avx2/g16/l202.exe)
                          Input orientation:                          
 ---------------------------------------------------------------------
 Center     Atomic      Atomic             Coordinates (Angstroms)
 Number     Number       Type             X           Y           Z
 ---------------------------------------------------------------------
      1          6           0       -0.719617   -0.129604    0.000000
      2          6           0        0.526382    0.001565    0.000000
      3          1           0        1.580589   -0.164863    0.000000
      4          1           0       -0.312123    1.013844    0.000000
 ---------------------------------------------------------------------
                    Distance matrix (angstroms):
                    1          2          3          4
     1  C    0.000000
     2  C    1.252884   0.000000
     3  H    2.300476   1.067263   0.000000
     4  H    1.213889   1.314457   2.229732   0.000000
 Stoichiometry    C2H2
 Framework group  CS[SG(C2H2)]
 Deg. of freedom     5
 Full point group                 CS      NOp   2
 RotChk:  IX=0 Diff= 2.18D-02
 Largest Abelian subgroup         CS      NOp   2
 Largest concise Abelian subgroup C1      NOp   1
                         Standard orientation:                         
 ---------------------------------------------------------------------
 Center     Atomic      Atomic             Coordinates (Angstroms)
 Number     Number       Type             X           Y           Z
 ---------------------------------------------------------------------
      1          6           0        0.058473   -0.737582    0.000000
      2          6           0        0.058473    0.515302    0.000000
      3          1           0        0.334355    1.546292    0.000000
      4          1           0       -1.036029   -0.212615    0.000000
 ---------------------------------------------------------------------
 Rotational constants (GHZ):         413.4868106          41.6348942          37.8261011
 Leave Link  202 at Thu Jul  9 07:41:38 2026, MaxMem=   268435456 cpu:               0.0 elap:               0.0
 (Enter /sw/isaac/applications/gaussian/16C01/rhel8_cascadelake_binary_x86_64_avx2/g16/l301.exe)
 Standard basis: STO-3G (5D, 7F)
 Ernie: Thresh=  0.10000D-02 Tol=  0.10000D-05 Strict=F.
 There are    10 symmetry adapted cartesian basis functions of A'  symmetry.
 There are     2 symmetry adapted cartesian basis functions of A"  symmetry.
 There are    10 symmetry adapted basis functions of A'  symmetry.
 There are     2 symmetry adapted basis functions of A"  symmetry.
    12 basis functions,    36 primitive gaussians,    12 cartesian basis functions
     7 alpha electrons        7 beta electrons
       nuclear repulsion energy        24.8287948588 Hartrees.
 IExCor=    0 DFT=F Ex=HF Corr=None ExCW=0 ScaHFX=  1.000000
 ScaDFX=  1.000000  1.000000  1.000000  1.000000 ScalE2=  1.000000  1.000000
 IRadAn=      5 IRanWt=     -1 IRanGd=            0 ICorTp=0 IEmpDi=  4
 NAtoms=    4 NActive=    4 NUniq=    4 SFac= 1.00D+00 NAtFMM=   60 NAOKFM=F Big=F
 Integral buffers will be    131072 words long.
 Raffenetti 1 integral format.
 Two-electron integral symmetry is turned on.
 Leave Link  301 at Thu Jul  9 07:41:38 2026, MaxMem=   268435456 cpu:               0.0 elap:               0.0
 (Enter /sw/isaac/applications/gaussian/16C01/rhel8_cascadelake_binary_x86_64_avx2/g16/l402.exe)
 External calculation of energy and first derivatives.
 Running external command "/lustre/isaac24/scratch/usuresh3/xtb-gaussian/xtb-g R"
         input file       "/lustre/isaac24/scratch/usuresh3/paper/berny_results/hcch/Gau-1282850.EIn"
         output file      "/lustre/isaac24/scratch/usuresh3/paper/berny_results/hcch/Gau-1282850.EOu"
         message file     "/lustre/isaac24/scratch/usuresh3/paper/berny_results/hcch/Gau-1282850.EMs"
         fchk file        "/lustre/isaac24/scratch/usuresh3/paper/berny_results/hcch/Gau-1282850.EFC"
         mat. el file     "/lustre/isaac24/scratch/usuresh3/paper/berny_results/hcch/Gau-1282850.EUF"

 ExternalExternalExternalExternalExternalExternalExternalExternalExternalExternal
 Output from external command:
 "/lustre/isaac24/scratch/usuresh3/xtb-gaussian/xtb-g R /lustre/isaac24/scratch/usuresh3/paper/berny_results/hcch/Gau-1282850.EIn /lustre/isaac24/scratch/usuresh3/paper/berny_results/hcch/Gau-1282850.EOu /lustre/isaac24/scratch/usuresh3/paper/berny_results/hcch/Gau-1282850.EMs /lustre/isaac24/scratch/usuresh3/paper/berny_results/hcch/Gau-1282850.EFC /lustre/isaac24/scratch/usuresh3/paper/berny_results/hcch/Gau-1282850.EUF"
 Note: The following floating-point exceptions are signalling: IEEE_DENORMAL
 normal termination of xtb
  
 ------- xtb command was ---------
 ?> xtb ./Gau-1282850.EIn  --grad --charge 0  >/dev/null 2>Gau-1282850.EMs
 ---------------------------------
              Control returned to Gaussian.
 ~~~~~~~~~~~~~~~~~~~~~~~~~~~~~~~~~~~~~~~~~~~~~~~~~~~~~~~~~~~~~~~~~~~~~~~~~
 ExternalExternalExternalExternalExternalExternalExternalExternalExternalExternal

 Recovered energy= -5.11061307976     dipole=     -0.642872695849      0.899070529840      0.000000000014
 Energy=    -5.11061308     NIter=   0.
 Dipole moment=      -0.642873       0.899071       0.000000
 Leave Link  402 at Thu Jul  9 07:41:38 2026, MaxMem=   268435456 cpu:               0.1 elap:               0.1
 (Enter /sw/isaac/applications/gaussian/16C01/rhel8_cascadelake_binary_x86_64_avx2/g16/l716.exe)
 Dipole        =-6.42872696D-01 8.99070530D-01 1.37706880D-11
 ***** Axes restored to original set *****
 -------------------------------------------------------------------
 Center     Atomic                   Forces (Hartrees/Bohr)
 Number     Number              X              Y              Z
 -------------------------------------------------------------------
      1        6           0.001239506   -0.007215971   -0.000000000
      2        6          -0.000262584    0.006012889    0.000000000
      3        1           0.000535892    0.001961062    0.000000000
      4        1          -0.001512813   -0.000757980   -0.000000000
 -------------------------------------------------------------------
 Cartesian Forces:  Max     0.007215971 RMS     0.002840576
 Leave Link  716 at Thu Jul  9 07:41:38 2026, MaxMem=   268435456 cpu:               0.0 elap:               0.0
 (Enter /sw/isaac/applications/gaussian/16C01/rhel8_cascadelake_binary_x86_64_avx2/g16/l103.exe)

 GradGradGradGradGradGradGradGradGradGradGradGradGradGradGradGradGradGrad
 Berny optimization.
 FormGI is forming the generalized inverse of G from B-inverse, IUseBI=4.
 Internal  Forces:  Max     0.004996659 RMS     0.002313035
 Search for a saddle point.
 Step number   2 out of a maximum of   20
 All quantities printed in internal units (Hartrees-Bohrs-Radians)
 Swapping is turned off.
 Update second derivatives using D2CorX and points    1    2
 The second derivative matrix:
                          R1        R2        R3        A1        A2
           R1           0.87092
           R2           0.01512   0.14473
           R3           0.02333   0.00132   0.34928
           A1           0.04517   0.17496  -0.00241   0.03614
           A2           0.03074  -0.02863   0.00324   0.02141  -0.02606
           A3          -0.00000  -0.00000   0.00000  -0.00000  -0.00000
                          A3
           A3           0.02661
 ITU=  0  0
     Eigenvalues ---   -0.10743  -0.01379   0.02661   0.27158   0.34834
     Eigenvalues ---    0.87632
 Eigenvectors required to have negative eigenvalues:
                          A1        R2        A2        R1        R3
   1                   -0.73771   0.55472   0.38445   0.01362  -0.00892
                          A3
   1                    0.00000
 Eigenvalue     2 is  -1.38D-02 should be greater than     0.000000 Eigenvector:
                          A2        A1        R2        R1        R3
   1                    0.92153   0.33218  -0.19583  -0.04557  -0.00236
                          A3
   1                   -0.00000
 RFO step:  Lambda0=1.567413017D-04 Lambda=-1.47480526D-02.
 Linear search not attempted -- option 19 set.
 Maximum step size (   0.300) exceeded in Quadratic search.
    -- Step size scaled by   0.399
 Iteration  1 RMS(Cart)=  0.15155895 RMS(Int)=  0.03284025
 Iteration  2 RMS(Cart)=  0.03435323 RMS(Int)=  0.00105322
 Iteration  3 RMS(Cart)=  0.00113416 RMS(Int)=  0.00000024
 Iteration  4 RMS(Cart)=  0.00000026 RMS(Int)=  0.00000000
 ITry= 1 IFail=0 DXMaxC= 2.63D-01 DCOld= 1.00D+10 DXMaxT= 3.00D-01 DXLimC= 3.00D+00 Rises=F
 ClnCor:  largest displacement from symmetrization is 1.26D-08 for atom     2.
 Variable       Old X    -DE/DX   Delta X   Delta X   Delta X     New X
                                 (Linear)    (Quad)   (Total)
    R1        2.36761  -0.00118   0.00000  -0.01433  -0.01433   2.35327
    R2        2.29392   0.00153   0.00000  -0.06711  -0.06711   2.22681
    R3        2.01684  -0.00023   0.00000  -0.00075  -0.00075   2.01609
    A1        1.12357  -0.00183   0.00000   0.11077   0.11077   1.23434
    A2        3.40306   0.00500   0.00000   0.27022   0.27022   3.67328
    A3        3.14159   0.00000   0.00000  -0.00000   0.00000   3.14159
         Item               Value     Threshold  Converged?
 Maximum Force            0.004997     0.000450     NO 
 RMS     Force            0.002313     0.000300     NO 
 Maximum Displacement     0.262549     0.001800     NO 
 RMS     Displacement     0.174694     0.001200     NO 
 Predicted change in Energy=-1.693318D-03
 GradGradGradGradGradGradGradGradGradGradGradGradGradGradGradGradGradGrad

 Leave Link  103 at Thu Jul  9 07:41:38 2026, MaxMem=   268435456 cpu:               0.0 elap:               0.0
 (Enter /sw/isaac/applications/gaussian/16C01/rhel8_cascadelake_binary_x86_64_avx2/g16/l202.exe)
                          Input orientation:                          
 ---------------------------------------------------------------------
 Center     Atomic      Atomic             Coordinates (Angstroms)
 Number     Number       Type             X           Y           Z
 ---------------------------------------------------------------------
      1          6           0       -0.642022   -0.124603    0.000000
      2          6           0        0.584542    0.090593    0.000000
      3          1           0        1.583768   -0.283245    0.000000
      4          1           0       -0.451058    1.038196    0.000000
 ---------------------------------------------------------------------
                    Distance matrix (angstroms):
                    1          2          3          4
     1  C    0.000000
     2  C    1.245298   0.000000
     3  H    2.231437   1.066869   0.000000
     4  H    1.178376   1.403716   2.426258   0.000000
 Stoichiometry    C2H2
 Framework group  CS[SG(C2H2)]
 Deg. of freedom     5
 Full point group                 CS      NOp   2
 RotChk:  IX=0 Diff= 9.73D-02
 Largest Abelian subgroup         CS      NOp   2
 Largest concise Abelian subgroup C1      NOp   1
                         Standard orientation:                         
 ---------------------------------------------------------------------
 Center     Atomic      Atomic             Coordinates (Angstroms)
 Number     Number       Type             X           Y           Z
 ---------------------------------------------------------------------
      1          6           0        0.040816   -0.716122    0.000000
      2          6           0        0.040816    0.529176    0.000000
      3          1           0        0.581703    1.448768    0.000000
      4          1           0       -1.071490   -0.327091    0.000000
 ---------------------------------------------------------------------
 Rotational constants (GHZ):         359.8370377          42.7764789          38.2316063
 Leave Link  202 at Thu Jul  9 07:41:38 2026, MaxMem=   268435456 cpu:               0.0 elap:               0.0
 (Enter /sw/isaac/applications/gaussian/16C01/rhel8_cascadelake_binary_x86_64_avx2/g16/l301.exe)
 Standard basis: STO-3G (5D, 7F)
 Ernie: Thresh=  0.10000D-02 Tol=  0.10000D-05 Strict=F.
 There are    10 symmetry adapted cartesian basis functions of A'  symmetry.
 There are     2 symmetry adapted cartesian basis functions of A"  symmetry.
 There are    10 symmetry adapted basis functions of A'  symmetry.
 There are     2 symmetry adapted basis functions of A"  symmetry.
    12 basis functions,    36 primitive gaussians,    12 cartesian basis functions
     7 alpha electrons        7 beta electrons
       nuclear repulsion energy        24.8712227858 Hartrees.
 IExCor=    0 DFT=F Ex=HF Corr=None ExCW=0 ScaHFX=  1.000000
 ScaDFX=  1.000000  1.000000  1.000000  1.000000 ScalE2=  1.000000  1.000000
 IRadAn=      5 IRanWt=     -1 IRanGd=            0 ICorTp=0 IEmpDi=  4
 NAtoms=    4 NActive=    4 NUniq=    4 SFac= 1.00D+00 NAtFMM=   60 NAOKFM=F Big=F
 Integral buffers will be    131072 words long.
 Raffenetti 1 integral format.
 Two-electron integral symmetry is turned on.
 Leave Link  301 at Thu Jul  9 07:41:38 2026, MaxMem=   268435456 cpu:               0.0 elap:               0.0
 (Enter /sw/isaac/applications/gaussian/16C01/rhel8_cascadelake_binary_x86_64_avx2/g16/l402.exe)
 External calculation of energy and first derivatives.
 Running external command "/lustre/isaac24/scratch/usuresh3/xtb-gaussian/xtb-g R"
         input file       "/lustre/isaac24/scratch/usuresh3/paper/berny_results/hcch/Gau-1282850.EIn"
         output file      "/lustre/isaac24/scratch/usuresh3/paper/berny_results/hcch/Gau-1282850.EOu"
         message file     "/lustre/isaac24/scratch/usuresh3/paper/berny_results/hcch/Gau-1282850.EMs"
         fchk file        "/lustre/isaac24/scratch/usuresh3/paper/berny_results/hcch/Gau-1282850.EFC"
         mat. el file     "/lustre/isaac24/scratch/usuresh3/paper/berny_results/hcch/Gau-1282850.EUF"

 ExternalExternalExternalExternalExternalExternalExternalExternalExternalExternal
 Output from external command:
 "/lustre/isaac24/scratch/usuresh3/xtb-gaussian/xtb-g R /lustre/isaac24/scratch/usuresh3/paper/berny_results/hcch/Gau-1282850.EIn /lustre/isaac24/scratch/usuresh3/paper/berny_results/hcch/Gau-1282850.EOu /lustre/isaac24/scratch/usuresh3/paper/berny_results/hcch/Gau-1282850.EMs /lustre/isaac24/scratch/usuresh3/paper/berny_results/hcch/Gau-1282850.EFC /lustre/isaac24/scratch/usuresh3/paper/berny_results/hcch/Gau-1282850.EUF"
 Note: The following floating-point exceptions are signalling: IEEE_DENORMAL
 normal termination of xtb
  
 ------- xtb command was ---------
 ?> xtb ./Gau-1282850.EIn  --grad --charge 0  >/dev/null 2>Gau-1282850.EMs
 ---------------------------------
              Control returned to Gaussian.
 ~~~~~~~~~~~~~~~~~~~~~~~~~~~~~~~~~~~~~~~~~~~~~~~~~~~~~~~~~~~~~~~~~~~~~~~~~
 ExternalExternalExternalExternalExternalExternalExternalExternalExternalExternal

 Recovered energy= -5.10934143260     dipole=     -0.541044119817      0.758663574663      0.000000000000
 Energy=    -5.10934143     NIter=   0.
 Dipole moment=      -0.541044       0.758664       0.000000
 Leave Link  402 at Thu Jul  9 07:41:38 2026, MaxMem=   268435456 cpu:               0.1 elap:               0.1
 (Enter /sw/isaac/applications/gaussian/16C01/rhel8_cascadelake_binary_x86_64_avx2/g16/l716.exe)
 Dipole        =-5.41044120D-01 7.58663575D-01 1.61149973D-16
 ***** Axes restored to original set *****
 -------------------------------------------------------------------
 Center     Atomic                   Forces (Hartrees/Bohr)
 Number     Number              X              Y              Z
 -------------------------------------------------------------------
      1        6           0.010852922   -0.017449901    0.000000000
      2        6           0.001519719    0.013683955   -0.000000000
      3        1           0.006445896    0.009456952    0.000000000
      4        1          -0.018818537   -0.005691005   -0.000000000
 -------------------------------------------------------------------
 Cartesian Forces:  Max     0.018818537 RMS     0.009701175
 Leave Link  716 at Thu Jul  9 07:41:38 2026, MaxMem=   268435456 cpu:               0.0 elap:               0.0
 (Enter /sw/isaac/applications/gaussian/16C01/rhel8_cascadelake_binary_x86_64_avx2/g16/l103.exe)

 GradGradGradGradGradGradGradGradGradGradGradGradGradGradGradGradGradGrad
 Berny optimization.
 FormGI is forming the generalized inverse of G from B-inverse, IUseBI=4.
 Internal  Forces:  Max     0.017018285 RMS     0.009847652
 Search for a saddle point.
 Step number   3 out of a maximum of   20
 All quantities printed in internal units (Hartrees-Bohrs-Radians)
 Swapping is turned off.
 Update second derivatives using D2CorX and points    1    2    3
 The second derivative matrix:
                          R1        R2        R3        A1        A2
           R1           0.87100
           R2           0.01559   0.14702
           R3           0.02313   0.00124   0.34803
           A1           0.04299   0.17050  -0.01062  -0.01083
           A2           0.02724  -0.03890  -0.00547  -0.01876  -0.04503
           A3          -0.00000  -0.00000   0.00000  -0.00000  -0.00000
                          A3
           A3           0.02661
 ITU=  0  0  0
     Eigenvalues ---   -0.12103  -0.05202   0.02661   0.26001   0.34771
     Eigenvalues ---    0.87553
 Eigenvectors required to have negative eigenvalues:
                          A1        R2        A2        R1        R3
   1                   -0.83865   0.54045   0.05848   0.02673  -0.02106
                          A3
   1                    0.00000
 Eigenvalue     2 is  -5.20D-02 should be greater than     0.000000 Eigenvector:
                          A2        A1        R2        R1        R3
   1                    0.98734   0.12458   0.08903  -0.03692   0.01866
                          A3
   1                    0.00000
 RFO step:  Lambda0=1.016386200D-03 Lambda=-5.83669096D-02.
 Linear search not attempted -- option 19 set.
 Maximum step size (   0.300) exceeded in Quadratic search.
    -- Step size scaled by   0.397
 Iteration  1 RMS(Cart)=  0.09219435 RMS(Int)=  0.04075223
 Iteration  2 RMS(Cart)=  0.04672919 RMS(Int)=  0.00194152
 Iteration  3 RMS(Cart)=  0.00189246 RMS(Int)=  0.00000025
 Iteration  4 RMS(Cart)=  0.00000030 RMS(Int)=  0.00000000
 ITry= 1 IFail=0 DXMaxC= 1.86D-01 DCOld= 1.00D+10 DXMaxT= 3.00D-01 DXLimC= 3.00D+00 Rises=F
 ClnCor:  largest displacement from symmetrization is 3.38D-09 for atom     2.
 Variable       Old X    -DE/DX   Delta X   Delta X   Delta X     New X
                                 (Linear)    (Quad)   (Total)
    R1        2.35327   0.00025   0.00000  -0.00993  -0.00993   2.34335
    R2        2.22681   0.00325   0.00000   0.05546   0.05546   2.28226
    R3        2.01609   0.00310   0.00000   0.00733   0.00733   2.02342
    A1        1.23434   0.01649   0.00000   0.01259   0.01259   1.24693
    A2        3.67328   0.01702   0.00000   0.29430   0.29430   3.96758
    A3        3.14159  -0.00000   0.00000   0.00000   0.00000   3.14159
         Item               Value     Threshold  Converged?
 Maximum Force            0.017018     0.000450     NO 
 RMS     Force            0.009848     0.000300     NO 
 Maximum Displacement     0.186365     0.001800     NO 
 RMS     Displacement     0.135576     0.001200     NO 
 Predicted change in Energy=-7.782070D-03
 GradGradGradGradGradGradGradGradGradGradGradGradGradGradGradGradGradGrad

 Leave Link  103 at Thu Jul  9 07:41:38 2026, MaxMem=   268435456 cpu:               0.0 elap:               0.0
 (Enter /sw/isaac/applications/gaussian/16C01/rhel8_cascadelake_binary_x86_64_avx2/g16/l202.exe)
                          Input orientation:                          
 ---------------------------------------------------------------------
 Center     Atomic      Atomic             Coordinates (Angstroms)
 Number     Number       Type             X           Y           Z
 ---------------------------------------------------------------------
      1          6           0       -0.568822   -0.154396    0.000000
      2          6           0        0.622667    0.189214    0.000000
      3          1           0        1.538173   -0.366082    0.000000
      4          1           0       -0.516787    1.052205    0.000000
 ---------------------------------------------------------------------
                    Distance matrix (angstroms):
                    1          2          3          4
     1  C    0.000000
     2  C    1.240045   0.000000
     3  H    2.117601   1.070749   0.000000
     4  H    1.207723   1.429374   2.496878   0.000000
 Stoichiometry    C2H2
 Framework group  CS[SG(C2H2)]
 Deg. of freedom     5
 Full point group                 CS      NOp   2
 RotChk:  IX=0 Diff= 1.51D-01
 Largest Abelian subgroup         CS      NOp   2
 Largest concise Abelian subgroup C1      NOp   1
                         Standard orientation:                         
 ---------------------------------------------------------------------
 Center     Atomic      Atomic             Coordinates (Angstroms)
 Number     Number       Type             X           Y           Z
 ---------------------------------------------------------------------
      1          6           0        0.025550   -0.699317    0.000000
      2          6           0        0.025550    0.540728    0.000000
      3          1           0        0.812783    1.266516    0.000000
      4          1           0       -1.119385   -0.314978    0.000000
 ---------------------------------------------------------------------
 Rotational constants (GHZ):         289.8516013          44.8959904          38.8745880
 Leave Link  202 at Thu Jul  9 07:41:38 2026, MaxMem=   268435456 cpu:               0.0 elap:               0.0
 (Enter /sw/isaac/applications/gaussian/16C01/rhel8_cascadelake_binary_x86_64_avx2/g16/l301.exe)
 Standard basis: STO-3G (5D, 7F)
 Ernie: Thresh=  0.10000D-02 Tol=  0.10000D-05 Strict=F.
 There are    10 symmetry adapted cartesian basis functions of A'  symmetry.
 There are     2 symmetry adapted cartesian basis functions of A"  symmetry.
 There are    10 symmetry adapted basis functions of A'  symmetry.
 There are     2 symmetry adapted basis functions of A"  symmetry.
    12 basis functions,    36 primitive gaussians,    12 cartesian basis functions
     7 alpha electrons        7 beta electrons
       nuclear repulsion energy        24.8894898048 Hartrees.
 IExCor=    0 DFT=F Ex=HF Corr=None ExCW=0 ScaHFX=  1.000000
 ScaDFX=  1.000000  1.000000  1.000000  1.000000 ScalE2=  1.000000  1.000000
 IRadAn=      5 IRanWt=     -1 IRanGd=            0 ICorTp=0 IEmpDi=  4
 NAtoms=    4 NActive=    4 NUniq=    4 SFac= 1.00D+00 NAtFMM=   60 NAOKFM=F Big=F
 Integral buffers will be    131072 words long.
 Raffenetti 1 integral format.
 Two-electron integral symmetry is turned on.
 Leave Link  301 at Thu Jul  9 07:41:38 2026, MaxMem=   268435456 cpu:               0.0 elap:               0.0
 (Enter /sw/isaac/applications/gaussian/16C01/rhel8_cascadelake_binary_x86_64_avx2/g16/l402.exe)
 External calculation of energy and first derivatives.
 Running external command "/lustre/isaac24/scratch/usuresh3/xtb-gaussian/xtb-g R"
         input file       "/lustre/isaac24/scratch/usuresh3/paper/berny_results/hcch/Gau-1282850.EIn"
         output file      "/lustre/isaac24/scratch/usuresh3/paper/berny_results/hcch/Gau-1282850.EOu"
         message file     "/lustre/isaac24/scratch/usuresh3/paper/berny_results/hcch/Gau-1282850.EMs"
         fchk file        "/lustre/isaac24/scratch/usuresh3/paper/berny_results/hcch/Gau-1282850.EFC"
         mat. el file     "/lustre/isaac24/scratch/usuresh3/paper/berny_results/hcch/Gau-1282850.EUF"

 ExternalExternalExternalExternalExternalExternalExternalExternalExternalExternal
 Output from external command:
 "/lustre/isaac24/scratch/usuresh3/xtb-gaussian/xtb-g R /lustre/isaac24/scratch/usuresh3/paper/berny_results/hcch/Gau-1282850.EIn /lustre/isaac24/scratch/usuresh3/paper/berny_results/hcch/Gau-1282850.EOu /lustre/isaac24/scratch/usuresh3/paper/berny_results/hcch/Gau-1282850.EMs /lustre/isaac24/scratch/usuresh3/paper/berny_results/hcch/Gau-1282850.EFC /lustre/isaac24/scratch/usuresh3/paper/berny_results/hcch/Gau-1282850.EUF"
 Note: The following floating-point exceptions are signalling: IEEE_DENORMAL
 normal termination of xtb
  
 ------- xtb command was ---------
 ?> xtb ./Gau-1282850.EIn  --grad --charge 0  >/dev/null 2>Gau-1282850.EMs
 ---------------------------------
              Control returned to Gaussian.
 ~~~~~~~~~~~~~~~~~~~~~~~~~~~~~~~~~~~~~~~~~~~~~~~~~~~~~~~~~~~~~~~~~~~~~~~~~
 ExternalExternalExternalExternalExternalExternalExternalExternalExternalExternal

 Recovered energy= -5.09821322770     dipole=     -0.451470611155      0.670668637347      0.000000000000
 Energy=    -5.09821323     NIter=   0.
 Dipole moment=      -0.451471       0.670669       0.000000
 Leave Link  402 at Thu Jul  9 07:41:38 2026, MaxMem=   268435456 cpu:               0.1 elap:               0.1
 (Enter /sw/isaac/applications/gaussian/16C01/rhel8_cascadelake_binary_x86_64_avx2/g16/l716.exe)
 Dipole        =-4.51470611D-01 6.70668637D-01 2.82886904D-15
 ***** Axes restored to original set *****
 -------------------------------------------------------------------
 Center     Atomic                   Forces (Hartrees/Bohr)
 Number     Number              X              Y              Z
 -------------------------------------------------------------------
      1        6           0.007528541   -0.020506971    0.000000000
      2        6          -0.000213237    0.018004395   -0.000000000
      3        1           0.016324501    0.020185153   -0.000000000
      4        1          -0.023639805   -0.017682577    0.000000000
 -------------------------------------------------------------------
 Cartesian Forces:  Max     0.023639805 RMS     0.013984700
 Leave Link  716 at Thu Jul  9 07:41:38 2026, MaxMem=   268435456 cpu:               0.0 elap:               0.0
 (Enter /sw/isaac/applications/gaussian/16C01/rhel8_cascadelake_binary_x86_64_avx2/g16/l103.exe)

 GradGradGradGradGradGradGradGradGradGradGradGradGradGradGradGradGradGrad
 Berny optimization.
 FormGI is forming the generalized inverse of G from B-inverse, IUseBI=4.
 Internal  Forces:  Max     0.010276202 RMS     0.006693519
 Search for a saddle point.
 Step number   4 out of a maximum of   20
 All quantities printed in internal units (Hartrees-Bohrs-Radians)
 Swapping is turned off.
 Update second derivatives using D2CorX and points    2    3    4
 The second derivative matrix:
                          R1        R2        R3        A1        A2
           R1           0.87433
           R2           0.01240   0.14997
           R3           0.02659  -0.00209   0.35159
           A1           0.04014   0.17326  -0.01364  -0.00857
           A2           0.01094  -0.02356  -0.02284  -0.00566   0.02853
           A3          -0.00000  -0.00000   0.00000  -0.00000  -0.00000
                          A3
           A3           0.02661
 ITU=  0  0  0  0
     Eigenvalues ---   -0.12117   0.02459   0.02661   0.26122   0.35312
     Eigenvalues ---    0.87810
 Eigenvectors required to have negative eigenvalues:
                          A1        R2        A2        R1        R3
   1                    0.83993  -0.53948  -0.04797  -0.02718   0.02105
                          A3
   1                   -0.00000
 RFO step:  Lambda0=4.426419700D-04 Lambda=-4.72604899D-03.
 Linear search not attempted -- option 19 set.
 Maximum step size (   0.300) exceeded in Quadratic search.
    -- Step size scaled by   0.753
 Iteration  1 RMS(Cart)=  0.00889613 RMS(Int)=  0.11395660
 Iteration  2 RMS(Cart)=  0.00004707 RMS(Int)=  0.11391201
 Iteration  3 RMS(Cart)=  0.00004666 RMS(Int)=  0.11386783
 Iteration  4 RMS(Cart)=  0.00004625 RMS(Int)=  0.11382404
 Iteration  5 RMS(Cart)=  0.00004584 RMS(Int)=  0.11378063
 Iteration  6 RMS(Cart)=  0.00004543 RMS(Int)=  0.11373762
 Iteration  7 RMS(Cart)=  0.00004503 RMS(Int)=  0.11369498
 Iteration  8 RMS(Cart)=  0.00004463 RMS(Int)=  0.11365272
 Iteration  9 RMS(Cart)=  0.00004424 RMS(Int)=  0.11361084
 Iteration 10 RMS(Cart)=  0.00004385 RMS(Int)=  0.11356934
 Iteration 11 RMS(Cart)=  0.00004346 RMS(Int)=  0.11352820
 Iteration 12 RMS(Cart)=  0.00004308 RMS(Int)=  0.11348742
 Iteration 13 RMS(Cart)=  0.00004270 RMS(Int)=  0.11344701
 Iteration 14 RMS(Cart)=  0.00004232 RMS(Int)=  0.11340695
 Iteration 15 RMS(Cart)=  0.00004194 RMS(Int)=  0.11336726
 Iteration 16 RMS(Cart)=  0.00004157 RMS(Int)=  0.11332791
 Iteration 17 RMS(Cart)=  0.00004121 RMS(Int)=  0.11328891
 Iteration 18 RMS(Cart)=  0.00004084 RMS(Int)=  0.11325026
 Iteration 19 RMS(Cart)=  0.00004048 RMS(Int)=  0.11321196
 Iteration 20 RMS(Cart)=  0.00004013 RMS(Int)=  0.11317399
 Iteration 21 RMS(Cart)=  0.00003977 RMS(Int)=  0.11313636
 Iteration 22 RMS(Cart)=  0.00003942 RMS(Int)=  0.11309906
 Iteration 23 RMS(Cart)=  0.00003907 RMS(Int)=  0.11306210
 Iteration 24 RMS(Cart)=  0.00003873 RMS(Int)=  0.11302546
 Iteration 25 RMS(Cart)=  0.00003838 RMS(Int)=  0.11298915
 Iteration 26 RMS(Cart)=  0.00003805 RMS(Int)=  0.11295316
 Iteration 27 RMS(Cart)=  0.00003771 RMS(Int)=  0.11291748
 Iteration 28 RMS(Cart)=  0.00003738 RMS(Int)=  0.11288213
 Iteration 29 RMS(Cart)=  0.00003705 RMS(Int)=  0.11284709
 Iteration 30 RMS(Cart)=  0.00003672 RMS(Int)=  0.11281236
 Iteration 31 RMS(Cart)=  0.00003640 RMS(Int)=  0.11277793
 Iteration 32 RMS(Cart)=  0.00003608 RMS(Int)=  0.11274381
 Iteration 33 RMS(Cart)=  0.00003576 RMS(Int)=  0.11271000
 Iteration 34 RMS(Cart)=  0.00003544 RMS(Int)=  0.11267648
 Iteration 35 RMS(Cart)=  0.00003513 RMS(Int)=  0.11264326
 Iteration 36 RMS(Cart)=  0.00003482 RMS(Int)=  0.11261034
 Iteration 37 RMS(Cart)=  0.00003451 RMS(Int)=  0.11257771
 Iteration 38 RMS(Cart)=  0.00003421 RMS(Int)=  0.11254536
 Iteration 39 RMS(Cart)=  0.00003391 RMS(Int)=  0.11251331
 Iteration 40 RMS(Cart)=  0.00003361 RMS(Int)=  0.11248153
 Iteration 41 RMS(Cart)=  0.00003331 RMS(Int)=  0.11245004
 Iteration 42 RMS(Cart)=  0.00003302 RMS(Int)=  0.11241883
 Iteration 43 RMS(Cart)=  0.00003272 RMS(Int)=  0.11238789
 Iteration 44 RMS(Cart)=  0.00003244 RMS(Int)=  0.11235723
 Iteration 45 RMS(Cart)=  0.00003215 RMS(Int)=  0.11232684
 Iteration 46 RMS(Cart)=  0.00003187 RMS(Int)=  0.11229672
 Iteration 47 RMS(Cart)=  0.00003159 RMS(Int)=  0.11226686
 Iteration 48 RMS(Cart)=  0.00003131 RMS(Int)=  0.11223727
 Iteration 49 RMS(Cart)=  0.00003103 RMS(Int)=  0.11220795
 Iteration 50 RMS(Cart)=  0.00003076 RMS(Int)=  0.11217888
 Iteration 51 RMS(Cart)=  0.00003049 RMS(Int)=  0.11215006
 Iteration 52 RMS(Cart)=  0.00003022 RMS(Int)=  0.11212151
 Iteration 53 RMS(Cart)=  0.00002995 RMS(Int)=  0.11209320
 Iteration 54 RMS(Cart)=  0.00002969 RMS(Int)=  0.11206515
 Iteration 55 RMS(Cart)=  0.00002942 RMS(Int)=  0.11203735
 Iteration 56 RMS(Cart)=  0.00002917 RMS(Int)=  0.11200979
 Iteration 57 RMS(Cart)=  0.00002891 RMS(Int)=  0.11198247
 Iteration 58 RMS(Cart)=  0.00002865 RMS(Int)=  0.11195540
 Iteration 59 RMS(Cart)=  0.00002840 RMS(Int)=  0.11192856
 Iteration 60 RMS(Cart)=  0.00002815 RMS(Int)=  0.11190197
 Iteration 61 RMS(Cart)=  0.00002790 RMS(Int)=  0.11187561
 Iteration 62 RMS(Cart)=  0.00002766 RMS(Int)=  0.11184948
 Iteration 63 RMS(Cart)=  0.00002741 RMS(Int)=  0.11182358
 Iteration 64 RMS(Cart)=  0.00002717 RMS(Int)=  0.11179791
 Iteration 65 RMS(Cart)=  0.00002693 RMS(Int)=  0.11177247
 Iteration 66 RMS(Cart)=  0.00002669 RMS(Int)=  0.11174725
 Iteration 67 RMS(Cart)=  0.00002646 RMS(Int)=  0.11172226
 Iteration 68 RMS(Cart)=  0.00002623 RMS(Int)=  0.11169749
 Iteration 69 RMS(Cart)=  0.00002599 RMS(Int)=  0.11167294
 Iteration 70 RMS(Cart)=  0.00002577 RMS(Int)=  0.11164860
 Iteration 71 RMS(Cart)=  0.00002554 RMS(Int)=  0.11162448
 Iteration 72 RMS(Cart)=  0.00002531 RMS(Int)=  0.11160057
 Iteration 73 RMS(Cart)=  0.00002509 RMS(Int)=  0.11157687
 Iteration 74 RMS(Cart)=  0.00002487 RMS(Int)=  0.11155339
 Iteration 75 RMS(Cart)=  0.00002465 RMS(Int)=  0.11153011
 Iteration 76 RMS(Cart)=  0.00002443 RMS(Int)=  0.11150703
 Iteration 77 RMS(Cart)=  0.00002422 RMS(Int)=  0.11148416
 Iteration 78 RMS(Cart)=  0.00002400 RMS(Int)=  0.11146150
 Iteration 79 RMS(Cart)=  0.00002379 RMS(Int)=  0.11143903
 Iteration 80 RMS(Cart)=  0.00002358 RMS(Int)=  0.11141676
 Iteration 81 RMS(Cart)=  0.00002338 RMS(Int)=  0.11139469
 Iteration 82 RMS(Cart)=  0.00002317 RMS(Int)=  0.11137281
 Iteration 83 RMS(Cart)=  0.00002297 RMS(Int)=  0.11135113
 Iteration 84 RMS(Cart)=  0.00002276 RMS(Int)=  0.11132963
 Iteration 85 RMS(Cart)=  0.00002256 RMS(Int)=  0.11130833
 Iteration 86 RMS(Cart)=  0.00002236 RMS(Int)=  0.11128722
 Iteration 87 RMS(Cart)=  0.00002217 RMS(Int)=  0.11126629
 Iteration 88 RMS(Cart)=  0.00002197 RMS(Int)=  0.11124555
 Iteration 89 RMS(Cart)=  0.00002178 RMS(Int)=  0.11122499
 Iteration 90 RMS(Cart)=  0.00002159 RMS(Int)=  0.11120461
 Iteration 91 RMS(Cart)=  0.00002140 RMS(Int)=  0.11118441
 Iteration 92 RMS(Cart)=  0.00002121 RMS(Int)=  0.11116439
 Iteration 93 RMS(Cart)=  0.00002102 RMS(Int)=  0.11114455
 Iteration 94 RMS(Cart)=  0.00002084 RMS(Int)=  0.11112488
 Iteration 95 RMS(Cart)=  0.00002065 RMS(Int)=  0.11110538
 Iteration 96 RMS(Cart)=  0.00002047 RMS(Int)=  0.11108606
 Iteration 97 RMS(Cart)=  0.00002029 RMS(Int)=  0.11106691
 Iteration 98 RMS(Cart)=  0.00002011 RMS(Int)=  0.11104793
 Iteration 99 RMS(Cart)=  0.00001993 RMS(Int)=  0.11102911
 Iteration100 RMS(Cart)=  0.00001976 RMS(Int)=  0.11101046
 New curvilinear step not converged.
 ITry= 1 IFail=1 DXMaxC= 1.75D-02 DCOld= 1.00D+10 DXMaxT= 3.00D-01 DXLimC= 3.00D+00 Rises=F
 Iteration  1 RMS(Cart)=  0.00890158 RMS(Int)=  0.10176021
 Iteration  2 RMS(Cart)=  0.00003389 RMS(Int)=  0.10172832
 Iteration  3 RMS(Cart)=  0.00003359 RMS(Int)=  0.10169670
 Iteration  4 RMS(Cart)=  0.00003330 RMS(Int)=  0.10166537
 Iteration  5 RMS(Cart)=  0.00003301 RMS(Int)=  0.10163431
 Iteration  6 RMS(Cart)=  0.00003272 RMS(Int)=  0.10160352
 Iteration  7 RMS(Cart)=  0.00003244 RMS(Int)=  0.10157300
 Iteration  8 RMS(Cart)=  0.00003216 RMS(Int)=  0.10154274
 Iteration  9 RMS(Cart)=  0.00003188 RMS(Int)=  0.10151275
 Iteration 10 RMS(Cart)=  0.00003160 RMS(Int)=  0.10148303
 Iteration 11 RMS(Cart)=  0.00003132 RMS(Int)=  0.10145356
 Iteration 12 RMS(Cart)=  0.00003105 RMS(Int)=  0.10142435
 Iteration 13 RMS(Cart)=  0.00003078 RMS(Int)=  0.10139539
 Iteration 14 RMS(Cart)=  0.00003051 RMS(Int)=  0.10136669
 Iteration 15 RMS(Cart)=  0.00003025 RMS(Int)=  0.10133824
 Iteration 16 RMS(Cart)=  0.00002998 RMS(Int)=  0.10131004
 Iteration 17 RMS(Cart)=  0.00002972 RMS(Int)=  0.10128209
 Iteration 18 RMS(Cart)=  0.00002946 RMS(Int)=  0.10125438
 Iteration 19 RMS(Cart)=  0.00002921 RMS(Int)=  0.10122691
 Iteration 20 RMS(Cart)=  0.00002895 RMS(Int)=  0.10119968
 Iteration 21 RMS(Cart)=  0.00002870 RMS(Int)=  0.10117269
 Iteration 22 RMS(Cart)=  0.00002845 RMS(Int)=  0.10114593
 Iteration 23 RMS(Cart)=  0.00002820 RMS(Int)=  0.10111941
 Iteration 24 RMS(Cart)=  0.00002796 RMS(Int)=  0.10109312
 Iteration 25 RMS(Cart)=  0.00002771 RMS(Int)=  0.10106706
 Iteration 26 RMS(Cart)=  0.00002747 RMS(Int)=  0.10104123
 Iteration 27 RMS(Cart)=  0.00002723 RMS(Int)=  0.10101562
 Iteration 28 RMS(Cart)=  0.00002700 RMS(Int)=  0.10099024
 Iteration 29 RMS(Cart)=  0.00002676 RMS(Int)=  0.10096508
 Iteration 30 RMS(Cart)=  0.00002653 RMS(Int)=  0.10094014
 Iteration 31 RMS(Cart)=  0.00002630 RMS(Int)=  0.10091541
 Iteration 32 RMS(Cart)=  0.00002607 RMS(Int)=  0.10089091
 Iteration 33 RMS(Cart)=  0.00002584 RMS(Int)=  0.10086661
 Iteration 34 RMS(Cart)=  0.00002562 RMS(Int)=  0.10084253
 Iteration 35 RMS(Cart)=  0.00002539 RMS(Int)=  0.10081866
 Iteration 36 RMS(Cart)=  0.00002517 RMS(Int)=  0.10079500
 Iteration 37 RMS(Cart)=  0.00002495 RMS(Int)=  0.10077154
 Iteration 38 RMS(Cart)=  0.00002474 RMS(Int)=  0.10074829
 Iteration 39 RMS(Cart)=  0.00002452 RMS(Int)=  0.10072524
 Iteration 40 RMS(Cart)=  0.00002431 RMS(Int)=  0.10070239
 Iteration 41 RMS(Cart)=  0.00002410 RMS(Int)=  0.10067974
 Iteration 42 RMS(Cart)=  0.00002389 RMS(Int)=  0.10065729
 Iteration 43 RMS(Cart)=  0.00002368 RMS(Int)=  0.10063504
 Iteration 44 RMS(Cart)=  0.00002347 RMS(Int)=  0.10061298
 Iteration 45 RMS(Cart)=  0.00002327 RMS(Int)=  0.10059111
 Iteration 46 RMS(Cart)=  0.00002307 RMS(Int)=  0.10056943
 Iteration 47 RMS(Cart)=  0.00002286 RMS(Int)=  0.10054795
 Iteration 48 RMS(Cart)=  0.00002267 RMS(Int)=  0.10052665
 Iteration 49 RMS(Cart)=  0.00002247 RMS(Int)=  0.10050553
 Iteration 50 RMS(Cart)=  0.00002227 RMS(Int)=  0.10048460
 Iteration 51 RMS(Cart)=  0.00002208 RMS(Int)=  0.10046385
 Iteration 52 RMS(Cart)=  0.00002189 RMS(Int)=  0.10044329
 Iteration 53 RMS(Cart)=  0.00002170 RMS(Int)=  0.10042290
 Iteration 54 RMS(Cart)=  0.00002151 RMS(Int)=  0.10040269
 Iteration 55 RMS(Cart)=  0.00002132 RMS(Int)=  0.10038266
 Iteration 56 RMS(Cart)=  0.00002113 RMS(Int)=  0.10036280
 Iteration 57 RMS(Cart)=  0.00002095 RMS(Int)=  0.10034311
 Iteration 58 RMS(Cart)=  0.00002077 RMS(Int)=  0.10032360
 Iteration 59 RMS(Cart)=  0.00002059 RMS(Int)=  0.10030426
 Iteration 60 RMS(Cart)=  0.00002041 RMS(Int)=  0.10028508
 Iteration 61 RMS(Cart)=  0.00002023 RMS(Int)=  0.10026608
 Iteration 62 RMS(Cart)=  0.00002006 RMS(Int)=  0.10024723
 Iteration 63 RMS(Cart)=  0.00001988 RMS(Int)=  0.10022856
 Iteration 64 RMS(Cart)=  0.00001971 RMS(Int)=  0.10021004
 Iteration 65 RMS(Cart)=  0.00001954 RMS(Int)=  0.10019169
 Iteration 66 RMS(Cart)=  0.00001937 RMS(Int)=  0.10017350
 Iteration 67 RMS(Cart)=  0.00001920 RMS(Int)=  0.10015546
 Iteration 68 RMS(Cart)=  0.00001903 RMS(Int)=  0.10013758
 Iteration 69 RMS(Cart)=  0.00001887 RMS(Int)=  0.10011986
 Iteration 70 RMS(Cart)=  0.00001870 RMS(Int)=  0.10010230
 Iteration 71 RMS(Cart)=  0.00001854 RMS(Int)=  0.10008488
 Iteration 72 RMS(Cart)=  0.00001838 RMS(Int)=  0.10006762
 Iteration 73 RMS(Cart)=  0.00001822 RMS(Int)=  0.10005051
 Iteration 74 RMS(Cart)=  0.00001806 RMS(Int)=  0.10003355
 Iteration 75 RMS(Cart)=  0.00001790 RMS(Int)=  0.10001673
 Iteration 76 RMS(Cart)=  0.00001775 RMS(Int)=  0.10000006
 Iteration 77 RMS(Cart)=  0.00001759 RMS(Int)=  0.09998354
 Iteration 78 RMS(Cart)=  0.00001744 RMS(Int)=  0.09996716
 Iteration 79 RMS(Cart)=  0.00001729 RMS(Int)=  0.09995093
 Iteration 80 RMS(Cart)=  0.00001714 RMS(Int)=  0.09993483
 Iteration 81 RMS(Cart)=  0.00001699 RMS(Int)=  0.09991888
 Iteration 82 RMS(Cart)=  0.00001684 RMS(Int)=  0.09990306
 Iteration 83 RMS(Cart)=  0.00001669 RMS(Int)=  0.09988739
 Iteration 84 RMS(Cart)=  0.00001655 RMS(Int)=  0.09987185
 Iteration 85 RMS(Cart)=  0.00001641 RMS(Int)=  0.09985644
 Iteration 86 RMS(Cart)=  0.00001626 RMS(Int)=  0.09984117
 Iteration 87 RMS(Cart)=  0.00001612 RMS(Int)=  0.09982603
 Iteration 88 RMS(Cart)=  0.00001598 RMS(Int)=  0.09981103
 Iteration 89 RMS(Cart)=  0.00001584 RMS(Int)=  0.09979615
 Iteration 90 RMS(Cart)=  0.00001570 RMS(Int)=  0.09978140
 Iteration 91 RMS(Cart)=  0.00001557 RMS(Int)=  0.09976679
 Iteration 92 RMS(Cart)=  0.00001543 RMS(Int)=  0.09975230
 Iteration 93 RMS(Cart)=  0.00001530 RMS(Int)=  0.09973793
 Iteration 94 RMS(Cart)=  0.00001517 RMS(Int)=  0.09972369
 Iteration 95 RMS(Cart)=  0.00001503 RMS(Int)=  0.09970958
 Iteration 96 RMS(Cart)=  0.00001490 RMS(Int)=  0.09969559
 Iteration 97 RMS(Cart)=  0.00001477 RMS(Int)=  0.09968172
 Iteration 98 RMS(Cart)=  0.00001464 RMS(Int)=  0.09966797
 Iteration 99 RMS(Cart)=  0.00001452 RMS(Int)=  0.09965434
 Iteration100 RMS(Cart)=  0.00001439 RMS(Int)=  0.09964083
 New curvilinear step not converged.
 ITry= 2 IFail=1 DXMaxC= 1.63D-02 DCOld= 1.00D+10 DXMaxT= 3.00D-01 DXLimC= 3.00D+00 Rises=F
 Iteration  1 RMS(Cart)=  0.00891155 RMS(Int)=  0.08956412
 Iteration  2 RMS(Cart)=  0.00002124 RMS(Int)=  0.08954427
 Iteration  3 RMS(Cart)=  0.00002106 RMS(Int)=  0.08952458
 Iteration  4 RMS(Cart)=  0.00002088 RMS(Int)=  0.08950507
 Iteration  5 RMS(Cart)=  0.00002070 RMS(Int)=  0.08948573
 Iteration  6 RMS(Cart)=  0.00002052 RMS(Int)=  0.08946655
 Iteration  7 RMS(Cart)=  0.00002035 RMS(Int)=  0.08944754
 Iteration  8 RMS(Cart)=  0.00002017 RMS(Int)=  0.08942869
 Iteration  9 RMS(Cart)=  0.00002000 RMS(Int)=  0.08941000
 Iteration 10 RMS(Cart)=  0.00001983 RMS(Int)=  0.08939147
 Iteration 11 RMS(Cart)=  0.00001965 RMS(Int)=  0.08937311
 Iteration 12 RMS(Cart)=  0.00001949 RMS(Int)=  0.08935490
 Iteration 13 RMS(Cart)=  0.00001932 RMS(Int)=  0.08933685
 Iteration 14 RMS(Cart)=  0.00001915 RMS(Int)=  0.08931895
 Iteration 15 RMS(Cart)=  0.00001899 RMS(Int)=  0.08930121
 Iteration 16 RMS(Cart)=  0.00001882 RMS(Int)=  0.08928362
 Iteration 17 RMS(Cart)=  0.00001866 RMS(Int)=  0.08926619
 Iteration 18 RMS(Cart)=  0.00001850 RMS(Int)=  0.08924890
 Iteration 19 RMS(Cart)=  0.00001834 RMS(Int)=  0.08923176
 Iteration 20 RMS(Cart)=  0.00001819 RMS(Int)=  0.08921477
 Iteration 21 RMS(Cart)=  0.00001803 RMS(Int)=  0.08919793
 Iteration 22 RMS(Cart)=  0.00001787 RMS(Int)=  0.08918123
 Iteration 23 RMS(Cart)=  0.00001772 RMS(Int)=  0.08916468
 Iteration 24 RMS(Cart)=  0.00001757 RMS(Int)=  0.08914826
 Iteration 25 RMS(Cart)=  0.00001742 RMS(Int)=  0.08913199
 Iteration 26 RMS(Cart)=  0.00001727 RMS(Int)=  0.08911586
 Iteration 27 RMS(Cart)=  0.00001712 RMS(Int)=  0.08909987
 Iteration 28 RMS(Cart)=  0.00001697 RMS(Int)=  0.08908402
 Iteration 29 RMS(Cart)=  0.00001683 RMS(Int)=  0.08906830
 Iteration 30 RMS(Cart)=  0.00001668 RMS(Int)=  0.08905272
 Iteration 31 RMS(Cart)=  0.00001654 RMS(Int)=  0.08903727
 Iteration 32 RMS(Cart)=  0.00001640 RMS(Int)=  0.08902195
 Iteration 33 RMS(Cart)=  0.00001625 RMS(Int)=  0.08900677
 Iteration 34 RMS(Cart)=  0.00001611 RMS(Int)=  0.08899172
 Iteration 35 RMS(Cart)=  0.00001598 RMS(Int)=  0.08897680
 Iteration 36 RMS(Cart)=  0.00001584 RMS(Int)=  0.08896200
 Iteration 37 RMS(Cart)=  0.00001570 RMS(Int)=  0.08894734
 Iteration 38 RMS(Cart)=  0.00001557 RMS(Int)=  0.08893280
 Iteration 39 RMS(Cart)=  0.00001543 RMS(Int)=  0.08891838
 Iteration 40 RMS(Cart)=  0.00001530 RMS(Int)=  0.08890409
 Iteration 41 RMS(Cart)=  0.00001517 RMS(Int)=  0.08888992
 Iteration 42 RMS(Cart)=  0.00001504 RMS(Int)=  0.08887588
 Iteration 43 RMS(Cart)=  0.00001491 RMS(Int)=  0.08886195
 Iteration 44 RMS(Cart)=  0.00001478 RMS(Int)=  0.08884815
 Iteration 45 RMS(Cart)=  0.00001466 RMS(Int)=  0.08883446
 Iteration 46 RMS(Cart)=  0.00001453 RMS(Int)=  0.08882089
 Iteration 47 RMS(Cart)=  0.00001440 RMS(Int)=  0.08880744
 Iteration 48 RMS(Cart)=  0.00001428 RMS(Int)=  0.08879410
 Iteration 49 RMS(Cart)=  0.00001416 RMS(Int)=  0.08878088
 Iteration 50 RMS(Cart)=  0.00001404 RMS(Int)=  0.08876777
 Iteration 51 RMS(Cart)=  0.00001392 RMS(Int)=  0.08875478
 Iteration 52 RMS(Cart)=  0.00001380 RMS(Int)=  0.08874190
 Iteration 53 RMS(Cart)=  0.00001368 RMS(Int)=  0.08872913
 Iteration 54 RMS(Cart)=  0.00001356 RMS(Int)=  0.08871646
 Iteration 55 RMS(Cart)=  0.00001344 RMS(Int)=  0.08870391
 Iteration 56 RMS(Cart)=  0.00001333 RMS(Int)=  0.08869147
 Iteration 57 RMS(Cart)=  0.00001321 RMS(Int)=  0.08867913
 Iteration 58 RMS(Cart)=  0.00001310 RMS(Int)=  0.08866690
 Iteration 59 RMS(Cart)=  0.00001299 RMS(Int)=  0.08865477
 Iteration 60 RMS(Cart)=  0.00001288 RMS(Int)=  0.08864275
 Iteration 61 RMS(Cart)=  0.00001276 RMS(Int)=  0.08863083
 Iteration 62 RMS(Cart)=  0.00001266 RMS(Int)=  0.08861901
 Iteration 63 RMS(Cart)=  0.00001255 RMS(Int)=  0.08860730
 Iteration 64 RMS(Cart)=  0.00001244 RMS(Int)=  0.08859569
 Iteration 65 RMS(Cart)=  0.00001233 RMS(Int)=  0.08858417
 Iteration 66 RMS(Cart)=  0.00001223 RMS(Int)=  0.08857276
 Iteration 67 RMS(Cart)=  0.00001212 RMS(Int)=  0.08856144
 Iteration 68 RMS(Cart)=  0.00001202 RMS(Int)=  0.08855022
 Iteration 69 RMS(Cart)=  0.00001191 RMS(Int)=  0.08853910
 Iteration 70 RMS(Cart)=  0.00001181 RMS(Int)=  0.08852807
 Iteration 71 RMS(Cart)=  0.00001171 RMS(Int)=  0.08851714
 Iteration 72 RMS(Cart)=  0.00001161 RMS(Int)=  0.08850631
 Iteration 73 RMS(Cart)=  0.00001151 RMS(Int)=  0.08849556
 Iteration 74 RMS(Cart)=  0.00001141 RMS(Int)=  0.08848491
 Iteration 75 RMS(Cart)=  0.00001131 RMS(Int)=  0.08847435
 Iteration 76 RMS(Cart)=  0.00001122 RMS(Int)=  0.08846388
 Iteration 77 RMS(Cart)=  0.00001112 RMS(Int)=  0.08845350
 Iteration 78 RMS(Cart)=  0.00001102 RMS(Int)=  0.08844321
 Iteration 79 RMS(Cart)=  0.00001093 RMS(Int)=  0.08843301
 Iteration 80 RMS(Cart)=  0.00001083 RMS(Int)=  0.08842289
 Iteration 81 RMS(Cart)=  0.00001074 RMS(Int)=  0.08841287
 Iteration 82 RMS(Cart)=  0.00001065 RMS(Int)=  0.08840293
 Iteration 83 RMS(Cart)=  0.00001056 RMS(Int)=  0.08839307
 Iteration 84 RMS(Cart)=  0.00001047 RMS(Int)=  0.08838330
 Iteration 85 RMS(Cart)=  0.00001038 RMS(Int)=  0.08837362
 Iteration 86 RMS(Cart)=  0.00001029 RMS(Int)=  0.08836401
 Iteration 87 RMS(Cart)=  0.00001020 RMS(Int)=  0.08835449
 Iteration 88 RMS(Cart)=  0.00001011 RMS(Int)=  0.08834505
 Iteration 89 RMS(Cart)=  0.00001002 RMS(Int)=  0.08833570
 Iteration 90 RMS(Cart)=  0.00000994 RMS(Int)=  0.08832642
 Iteration 91 RMS(Cart)=  0.00000985 RMS(Int)=  0.08831722
 Iteration 92 RMS(Cart)=  0.00000977 RMS(Int)=  0.08830810
 Iteration 93 RMS(Cart)=  0.00000968 RMS(Int)=  0.08829907
 Iteration 94 RMS(Cart)=  0.00000960 RMS(Int)=  0.08829010
 Iteration 95 RMS(Cart)=  0.00000952 RMS(Int)=  0.08828122
 Iteration 96 RMS(Cart)=  0.00000944 RMS(Int)=  0.08827241
 Iteration 97 RMS(Cart)=  0.00000936 RMS(Int)=  0.08826368
 Iteration 98 RMS(Cart)=  0.00000928 RMS(Int)=  0.08825502
 Iteration 99 RMS(Cart)=  0.00000920 RMS(Int)=  0.08824644
 Iteration100 RMS(Cart)=  0.00000912 RMS(Int)=  0.08823793
 New curvilinear step not converged.
 ITry= 3 IFail=1 DXMaxC= 1.51D-02 DCOld= 1.00D+10 DXMaxT= 3.00D-01 DXLimC= 3.00D+00 Rises=F
 Iteration  1 RMS(Cart)=  0.00892600 RMS(Int)=  0.07736849
 Iteration  2 RMS(Cart)=  0.00003079 RMS(Int)=  0.07733980
 Iteration  3 RMS(Cart)=  0.00003065 RMS(Int)=  0.07731124
 Iteration  4 RMS(Cart)=  0.00003051 RMS(Int)=  0.07728282
 Iteration  5 RMS(Cart)=  0.00003037 RMS(Int)=  0.07725452
 Iteration  6 RMS(Cart)=  0.00003024 RMS(Int)=  0.07722635
 Iteration  7 RMS(Cart)=  0.00003010 RMS(Int)=  0.07719831
 Iteration  8 RMS(Cart)=  0.00002996 RMS(Int)=  0.07717040
 Iteration  9 RMS(Cart)=  0.00002983 RMS(Int)=  0.07714261
 Iteration 10 RMS(Cart)=  0.00002969 RMS(Int)=  0.07711495
 Iteration 11 RMS(Cart)=  0.00002956 RMS(Int)=  0.07708741
 Iteration 12 RMS(Cart)=  0.00002943 RMS(Int)=  0.07706000
 Iteration 13 RMS(Cart)=  0.00002929 RMS(Int)=  0.07703271
 Iteration 14 RMS(Cart)=  0.00002916 RMS(Int)=  0.07700554
 Iteration 15 RMS(Cart)=  0.00002903 RMS(Int)=  0.07697850
 Iteration 16 RMS(Cart)=  0.00002890 RMS(Int)=  0.07695157
 Iteration 17 RMS(Cart)=  0.00002877 RMS(Int)=  0.07692477
 Iteration 18 RMS(Cart)=  0.00002864 RMS(Int)=  0.07689809
 Iteration 19 RMS(Cart)=  0.00002852 RMS(Int)=  0.07687153
 Iteration 20 RMS(Cart)=  0.00002839 RMS(Int)=  0.07684508
 Iteration 21 RMS(Cart)=  0.00002826 RMS(Int)=  0.07681876
 Iteration 22 RMS(Cart)=  0.00002814 RMS(Int)=  0.07679255
 Iteration 23 RMS(Cart)=  0.00002801 RMS(Int)=  0.07676645
 Iteration 24 RMS(Cart)=  0.00002789 RMS(Int)=  0.07674048
 Iteration 25 RMS(Cart)=  0.00002776 RMS(Int)=  0.07671462
 Iteration 26 RMS(Cart)=  0.00002764 RMS(Int)=  0.07668887
 Iteration 27 RMS(Cart)=  0.00002752 RMS(Int)=  0.07666324
 Iteration 28 RMS(Cart)=  0.00002740 RMS(Int)=  0.07663772
 Iteration 29 RMS(Cart)=  0.00002728 RMS(Int)=  0.07661231
 Iteration 30 RMS(Cart)=  0.00002716 RMS(Int)=  0.07658702
 Iteration 31 RMS(Cart)=  0.00002704 RMS(Int)=  0.07656184
 Iteration 32 RMS(Cart)=  0.00002692 RMS(Int)=  0.07653676
 Iteration 33 RMS(Cart)=  0.00002680 RMS(Int)=  0.07651180
 Iteration 34 RMS(Cart)=  0.00002668 RMS(Int)=  0.07648695
 Iteration 35 RMS(Cart)=  0.00002657 RMS(Int)=  0.07646221
 Iteration 36 RMS(Cart)=  0.00002645 RMS(Int)=  0.07643757
 Iteration 37 RMS(Cart)=  0.00002634 RMS(Int)=  0.07641305
 Iteration 38 RMS(Cart)=  0.00002622 RMS(Int)=  0.07638863
 Iteration 39 RMS(Cart)=  0.00002611 RMS(Int)=  0.07636431
 Iteration 40 RMS(Cart)=  0.00002599 RMS(Int)=  0.07634011
 Iteration 41 RMS(Cart)=  0.00002588 RMS(Int)=  0.07631600
 Iteration 42 RMS(Cart)=  0.00002577 RMS(Int)=  0.07629201
 Iteration 43 RMS(Cart)=  0.00002566 RMS(Int)=  0.07626812
 Iteration 44 RMS(Cart)=  0.00002554 RMS(Int)=  0.07624433
 Iteration 45 RMS(Cart)=  0.00002543 RMS(Int)=  0.07622064
 Iteration 46 RMS(Cart)=  0.00002532 RMS(Int)=  0.07619706
 Iteration 47 RMS(Cart)=  0.00002521 RMS(Int)=  0.07617358
 Iteration 48 RMS(Cart)=  0.00002511 RMS(Int)=  0.07615020
 Iteration 49 RMS(Cart)=  0.00002500 RMS(Int)=  0.07612692
 Iteration 50 RMS(Cart)=  0.00002489 RMS(Int)=  0.07610374
 Iteration 51 RMS(Cart)=  0.00002478 RMS(Int)=  0.07608066
 Iteration 52 RMS(Cart)=  0.00002468 RMS(Int)=  0.07605768
 Iteration 53 RMS(Cart)=  0.00002457 RMS(Int)=  0.07603480
 Iteration 54 RMS(Cart)=  0.00002447 RMS(Int)=  0.07601202
 Iteration 55 RMS(Cart)=  0.00002436 RMS(Int)=  0.07598934
 Iteration 56 RMS(Cart)=  0.00002426 RMS(Int)=  0.07596675
 Iteration 57 RMS(Cart)=  0.00002415 RMS(Int)=  0.07594426
 Iteration 58 RMS(Cart)=  0.00002405 RMS(Int)=  0.07592187
 Iteration 59 RMS(Cart)=  0.00002395 RMS(Int)=  0.07589957
 Iteration 60 RMS(Cart)=  0.00002385 RMS(Int)=  0.07587736
 Iteration 61 RMS(Cart)=  0.00002374 RMS(Int)=  0.07585526
 Iteration 62 RMS(Cart)=  0.00002364 RMS(Int)=  0.07583324
 Iteration 63 RMS(Cart)=  0.00002354 RMS(Int)=  0.07581132
 Iteration 64 RMS(Cart)=  0.00002344 RMS(Int)=  0.07578949
 Iteration 65 RMS(Cart)=  0.00002334 RMS(Int)=  0.07576776
 Iteration 66 RMS(Cart)=  0.00002325 RMS(Int)=  0.07574611
 Iteration 67 RMS(Cart)=  0.00002315 RMS(Int)=  0.07572456
 Iteration 68 RMS(Cart)=  0.00002305 RMS(Int)=  0.07570310
 Iteration 69 RMS(Cart)=  0.00002295 RMS(Int)=  0.07568173
 Iteration 70 RMS(Cart)=  0.00002286 RMS(Int)=  0.07566045
 Iteration 71 RMS(Cart)=  0.00002276 RMS(Int)=  0.07563926
 Iteration 72 RMS(Cart)=  0.00002266 RMS(Int)=  0.07561816
 Iteration 73 RMS(Cart)=  0.00002257 RMS(Int)=  0.07559715
 Iteration 74 RMS(Cart)=  0.00002247 RMS(Int)=  0.07557622
 Iteration 75 RMS(Cart)=  0.00002238 RMS(Int)=  0.07555539
 Iteration 76 RMS(Cart)=  0.00002229 RMS(Int)=  0.07553464
 Iteration 77 RMS(Cart)=  0.00002219 RMS(Int)=  0.07551398
 Iteration 78 RMS(Cart)=  0.00002210 RMS(Int)=  0.07549340
 Iteration 79 RMS(Cart)=  0.00002201 RMS(Int)=  0.07547292
 Iteration 80 RMS(Cart)=  0.00002192 RMS(Int)=  0.07545251
 Iteration 81 RMS(Cart)=  0.00002182 RMS(Int)=  0.07543219
 Iteration 82 RMS(Cart)=  0.00002173 RMS(Int)=  0.07541196
 Iteration 83 RMS(Cart)=  0.00002164 RMS(Int)=  0.07539181
 Iteration 84 RMS(Cart)=  0.00002155 RMS(Int)=  0.07537175
 Iteration 85 RMS(Cart)=  0.00002146 RMS(Int)=  0.07535177
 Iteration 86 RMS(Cart)=  0.00002137 RMS(Int)=  0.07533187
 Iteration 87 RMS(Cart)=  0.00002129 RMS(Int)=  0.07531205
 Iteration 88 RMS(Cart)=  0.00002120 RMS(Int)=  0.07529232
 Iteration 89 RMS(Cart)=  0.00002111 RMS(Int)=  0.07527267
 Iteration 90 RMS(Cart)=  0.00002102 RMS(Int)=  0.07525309
 Iteration 91 RMS(Cart)=  0.00002094 RMS(Int)=  0.07523360
 Iteration 92 RMS(Cart)=  0.00002085 RMS(Int)=  0.07521419
 Iteration 93 RMS(Cart)=  0.00002076 RMS(Int)=  0.07519487
 Iteration 94 RMS(Cart)=  0.00002068 RMS(Int)=  0.07517562
 Iteration 95 RMS(Cart)=  0.00002059 RMS(Int)=  0.07515645
 Iteration 96 RMS(Cart)=  0.00002051 RMS(Int)=  0.07513735
 Iteration 97 RMS(Cart)=  0.00002043 RMS(Int)=  0.07511834
 Iteration 98 RMS(Cart)=  0.00002034 RMS(Int)=  0.07509941
 Iteration 99 RMS(Cart)=  0.00002026 RMS(Int)=  0.07508055
 Iteration100 RMS(Cart)=  0.00002018 RMS(Int)=  0.07506177
 New curvilinear step not converged.
 ITry= 4 IFail=1 DXMaxC= 1.67D-02 DCOld= 1.00D+10 DXMaxT= 3.00D-01 DXLimC= 3.00D+00 Rises=F
 Iteration  1 RMS(Cart)=  0.00785939 RMS(Int)=  0.06613199
 Iteration  2 RMS(Cart)=  0.00005155 RMS(Int)=  0.06608394
 Iteration  3 RMS(Cart)=  0.00005133 RMS(Int)=  0.06603609
 Iteration  4 RMS(Cart)=  0.00005112 RMS(Int)=  0.06598844
 Iteration  5 RMS(Cart)=  0.00005090 RMS(Int)=  0.06594099
 Iteration  6 RMS(Cart)=  0.00005069 RMS(Int)=  0.06589374
 Iteration  7 RMS(Cart)=  0.00005048 RMS(Int)=  0.06584669
 Iteration  8 RMS(Cart)=  0.00005027 RMS(Int)=  0.06579983
 Iteration  9 RMS(Cart)=  0.00005006 RMS(Int)=  0.06575317
 Iteration 10 RMS(Cart)=  0.00004985 RMS(Int)=  0.06570670
 Iteration 11 RMS(Cart)=  0.00004965 RMS(Int)=  0.06566043
 Iteration 12 RMS(Cart)=  0.00004944 RMS(Int)=  0.06561434
 Iteration 13 RMS(Cart)=  0.00004924 RMS(Int)=  0.06556845
 Iteration 14 RMS(Cart)=  0.00004904 RMS(Int)=  0.06552275
 Iteration 15 RMS(Cart)=  0.00004884 RMS(Int)=  0.06547723
 Iteration 16 RMS(Cart)=  0.00004864 RMS(Int)=  0.06543191
 Iteration 17 RMS(Cart)=  0.00004844 RMS(Int)=  0.06538676
 Iteration 18 RMS(Cart)=  0.00004824 RMS(Int)=  0.06534181
 Iteration 19 RMS(Cart)=  0.00004804 RMS(Int)=  0.06529703
 Iteration 20 RMS(Cart)=  0.00004785 RMS(Int)=  0.06525244
 Iteration 21 RMS(Cart)=  0.00004766 RMS(Int)=  0.06520803
 Iteration 22 RMS(Cart)=  0.00004746 RMS(Int)=  0.06516380
 Iteration 23 RMS(Cart)=  0.00004727 RMS(Int)=  0.06511975
 Iteration 24 RMS(Cart)=  0.00004708 RMS(Int)=  0.06507587
 Iteration 25 RMS(Cart)=  0.00004689 RMS(Int)=  0.06503217
 Iteration 26 RMS(Cart)=  0.00004671 RMS(Int)=  0.06498865
 Iteration 27 RMS(Cart)=  0.00004652 RMS(Int)=  0.06494531
 Iteration 28 RMS(Cart)=  0.00004633 RMS(Int)=  0.06490213
 Iteration 29 RMS(Cart)=  0.00004615 RMS(Int)=  0.06485913
 Iteration 30 RMS(Cart)=  0.00004597 RMS(Int)=  0.06481630
 Iteration 31 RMS(Cart)=  0.00004578 RMS(Int)=  0.06477365
 Iteration 32 RMS(Cart)=  0.00004560 RMS(Int)=  0.06473116
 Iteration 33 RMS(Cart)=  0.00004542 RMS(Int)=  0.06468884
 Iteration 34 RMS(Cart)=  0.00004524 RMS(Int)=  0.06464668
 Iteration 35 RMS(Cart)=  0.00004506 RMS(Int)=  0.06460470
 Iteration 36 RMS(Cart)=  0.00004489 RMS(Int)=  0.06456287
 Iteration 37 RMS(Cart)=  0.00004471 RMS(Int)=  0.06452122
 Iteration 38 RMS(Cart)=  0.00004454 RMS(Int)=  0.06447972
 Iteration 39 RMS(Cart)=  0.00004436 RMS(Int)=  0.06443839
 Iteration 40 RMS(Cart)=  0.00004419 RMS(Int)=  0.06439723
 Iteration 41 RMS(Cart)=  0.00004402 RMS(Int)=  0.06435622
 Iteration 42 RMS(Cart)=  0.00004385 RMS(Int)=  0.06431537
 Iteration 43 RMS(Cart)=  0.00004368 RMS(Int)=  0.06427468
 Iteration 44 RMS(Cart)=  0.00004351 RMS(Int)=  0.06423415
 Iteration 45 RMS(Cart)=  0.00004334 RMS(Int)=  0.06419377
 Iteration 46 RMS(Cart)=  0.00004317 RMS(Int)=  0.06415356
 Iteration 47 RMS(Cart)=  0.00004301 RMS(Int)=  0.06411349
 Iteration 48 RMS(Cart)=  0.00004284 RMS(Int)=  0.06407358
 Iteration 49 RMS(Cart)=  0.00004268 RMS(Int)=  0.06403383
 Iteration 50 RMS(Cart)=  0.00004252 RMS(Int)=  0.06399422
 Iteration 51 RMS(Cart)=  0.00004235 RMS(Int)=  0.06395477
 Iteration 52 RMS(Cart)=  0.00004219 RMS(Int)=  0.06391547
 Iteration 53 RMS(Cart)=  0.00004203 RMS(Int)=  0.06387632
 Iteration 54 RMS(Cart)=  0.00004187 RMS(Int)=  0.06383732
 Iteration 55 RMS(Cart)=  0.00004171 RMS(Int)=  0.06379847
 Iteration 56 RMS(Cart)=  0.00004156 RMS(Int)=  0.06375976
 Iteration 57 RMS(Cart)=  0.00004140 RMS(Int)=  0.06372120
 Iteration 58 RMS(Cart)=  0.00004124 RMS(Int)=  0.06368279
 Iteration 59 RMS(Cart)=  0.00004109 RMS(Int)=  0.06364452
 Iteration 60 RMS(Cart)=  0.00004094 RMS(Int)=  0.06360639
 Iteration 61 RMS(Cart)=  0.00004078 RMS(Int)=  0.06356841
 Iteration 62 RMS(Cart)=  0.00004063 RMS(Int)=  0.06353057
 Iteration 63 RMS(Cart)=  0.00004048 RMS(Int)=  0.06349287
 Iteration 64 RMS(Cart)=  0.00004033 RMS(Int)=  0.06345532
 Iteration 65 RMS(Cart)=  0.00004018 RMS(Int)=  0.06341790
 Iteration 66 RMS(Cart)=  0.00004003 RMS(Int)=  0.06338062
 Iteration 67 RMS(Cart)=  0.00003988 RMS(Int)=  0.06334349
 Iteration 68 RMS(Cart)=  0.00003973 RMS(Int)=  0.06330649
 Iteration 69 RMS(Cart)=  0.00003959 RMS(Int)=  0.06326962
 Iteration 70 RMS(Cart)=  0.00003944 RMS(Int)=  0.06323289
 Iteration 71 RMS(Cart)=  0.00003930 RMS(Int)=  0.06319630
 Iteration 72 RMS(Cart)=  0.00003915 RMS(Int)=  0.06315985
 Iteration 73 RMS(Cart)=  0.00003901 RMS(Int)=  0.06312352
 Iteration 74 RMS(Cart)=  0.00003887 RMS(Int)=  0.06308733
 Iteration 75 RMS(Cart)=  0.00003872 RMS(Int)=  0.06305128
 Iteration 76 RMS(Cart)=  0.00003858 RMS(Int)=  0.06301535
 Iteration 77 RMS(Cart)=  0.00003844 RMS(Int)=  0.06297956
 Iteration 78 RMS(Cart)=  0.00003830 RMS(Int)=  0.06294389
 Iteration 79 RMS(Cart)=  0.00003816 RMS(Int)=  0.06290836
 Iteration 80 RMS(Cart)=  0.00003803 RMS(Int)=  0.06287296
 Iteration 81 RMS(Cart)=  0.00003789 RMS(Int)=  0.06283768
 Iteration 82 RMS(Cart)=  0.00003775 RMS(Int)=  0.06280253
 Iteration 83 RMS(Cart)=  0.00003762 RMS(Int)=  0.06276751
 Iteration 84 RMS(Cart)=  0.00003748 RMS(Int)=  0.06273261
 Iteration 85 RMS(Cart)=  0.00003735 RMS(Int)=  0.06269784
 Iteration 86 RMS(Cart)=  0.00003721 RMS(Int)=  0.06266320
 Iteration 87 RMS(Cart)=  0.00003708 RMS(Int)=  0.06262868
 Iteration 88 RMS(Cart)=  0.00003695 RMS(Int)=  0.06259428
 Iteration 89 RMS(Cart)=  0.00003681 RMS(Int)=  0.06256001
 Iteration 90 RMS(Cart)=  0.00003668 RMS(Int)=  0.06252586
 Iteration 91 RMS(Cart)=  0.00003655 RMS(Int)=  0.06249183
 Iteration 92 RMS(Cart)=  0.00003642 RMS(Int)=  0.06245792
 Iteration 93 RMS(Cart)=  0.00003630 RMS(Int)=  0.06242413
 Iteration 94 RMS(Cart)=  0.00003617 RMS(Int)=  0.06239046
 Iteration 95 RMS(Cart)=  0.00003604 RMS(Int)=  0.06235692
 Iteration 96 RMS(Cart)=  0.00003591 RMS(Int)=  0.06232349
 Iteration 97 RMS(Cart)=  0.00003579 RMS(Int)=  0.06229017
 Iteration 98 RMS(Cart)=  0.00003566 RMS(Int)=  0.06225698
 Iteration 99 RMS(Cart)=  0.00003554 RMS(Int)=  0.06222390
 Iteration100 RMS(Cart)=  0.00003541 RMS(Int)=  0.06219094
 New curvilinear step not converged.
 ITry= 5 IFail=1 DXMaxC= 1.77D-02 DCOld= 1.00D+10 DXMaxT= 3.00D-01 DXLimC= 3.00D+00 Rises=F
 Iteration  1 RMS(Cart)=  0.00654950 RMS(Int)=  0.05511055
 Iteration  2 RMS(Cart)=  0.00005654 RMS(Int)=  0.05505782
 Iteration  3 RMS(Cart)=  0.00005632 RMS(Int)=  0.05500529
 Iteration  4 RMS(Cart)=  0.00005611 RMS(Int)=  0.05495296
 Iteration  5 RMS(Cart)=  0.00005590 RMS(Int)=  0.05490083
 Iteration  6 RMS(Cart)=  0.00005568 RMS(Int)=  0.05484890
 Iteration  7 RMS(Cart)=  0.00005548 RMS(Int)=  0.05479716
 Iteration  8 RMS(Cart)=  0.00005527 RMS(Int)=  0.05474562
 Iteration  9 RMS(Cart)=  0.00005506 RMS(Int)=  0.05469428
 Iteration 10 RMS(Cart)=  0.00005485 RMS(Int)=  0.05464312
 Iteration 11 RMS(Cart)=  0.00005465 RMS(Int)=  0.05459216
 Iteration 12 RMS(Cart)=  0.00005445 RMS(Int)=  0.05454139
 Iteration 13 RMS(Cart)=  0.00005424 RMS(Int)=  0.05449080
 Iteration 14 RMS(Cart)=  0.00005404 RMS(Int)=  0.05444041
 Iteration 15 RMS(Cart)=  0.00005384 RMS(Int)=  0.05439020
 Iteration 16 RMS(Cart)=  0.00005365 RMS(Int)=  0.05434018
 Iteration 17 RMS(Cart)=  0.00005345 RMS(Int)=  0.05429034
 Iteration 18 RMS(Cart)=  0.00005325 RMS(Int)=  0.05424069
 Iteration 19 RMS(Cart)=  0.00005306 RMS(Int)=  0.05419122
 Iteration 20 RMS(Cart)=  0.00005286 RMS(Int)=  0.05414193
 Iteration 21 RMS(Cart)=  0.00005267 RMS(Int)=  0.05409282
 Iteration 22 RMS(Cart)=  0.00005248 RMS(Int)=  0.05404389
 Iteration 23 RMS(Cart)=  0.00005229 RMS(Int)=  0.05399514
 Iteration 24 RMS(Cart)=  0.00005210 RMS(Int)=  0.05394656
 Iteration 25 RMS(Cart)=  0.00005191 RMS(Int)=  0.05389817
 Iteration 26 RMS(Cart)=  0.00005173 RMS(Int)=  0.05384994
 Iteration 27 RMS(Cart)=  0.00005154 RMS(Int)=  0.05380189
 Iteration 28 RMS(Cart)=  0.00005136 RMS(Int)=  0.05375402
 Iteration 29 RMS(Cart)=  0.00005117 RMS(Int)=  0.05370631
 Iteration 30 RMS(Cart)=  0.00005099 RMS(Int)=  0.05365878
 Iteration 31 RMS(Cart)=  0.00005081 RMS(Int)=  0.05361142
 Iteration 32 RMS(Cart)=  0.00005063 RMS(Int)=  0.05356422
 Iteration 33 RMS(Cart)=  0.00005045 RMS(Int)=  0.05351720
 Iteration 34 RMS(Cart)=  0.00005027 RMS(Int)=  0.05347034
 Iteration 35 RMS(Cart)=  0.00005009 RMS(Int)=  0.05342365
 Iteration 36 RMS(Cart)=  0.00004992 RMS(Int)=  0.05337712
 Iteration 37 RMS(Cart)=  0.00004974 RMS(Int)=  0.05333076
 Iteration 38 RMS(Cart)=  0.00004957 RMS(Int)=  0.05328456
 Iteration 39 RMS(Cart)=  0.00004939 RMS(Int)=  0.05323852
 Iteration 40 RMS(Cart)=  0.00004922 RMS(Int)=  0.05319265
 Iteration 41 RMS(Cart)=  0.00004905 RMS(Int)=  0.05314693
 Iteration 42 RMS(Cart)=  0.00004888 RMS(Int)=  0.05310138
 Iteration 43 RMS(Cart)=  0.00004871 RMS(Int)=  0.05305598
 Iteration 44 RMS(Cart)=  0.00004854 RMS(Int)=  0.05301074
 Iteration 45 RMS(Cart)=  0.00004837 RMS(Int)=  0.05296566
 Iteration 46 RMS(Cart)=  0.00004821 RMS(Int)=  0.05292073
[...]
 Integral buffers will be    131072 words long.
 Raffenetti 1 integral format.
 Two-electron integral symmetry is turned on.
 Leave Link  301 at Thu Jul  9 07:41:41 2026, MaxMem=   268435456 cpu:               0.0 elap:               0.0
 (Enter /sw/isaac/applications/gaussian/16C01/rhel8_cascadelake_binary_x86_64_avx2/g16/l402.exe)
 External calculation of energy and first derivatives.
 Running external command "/lustre/isaac24/scratch/usuresh3/xtb-gaussian/xtb-g R"
         input file       "/lustre/isaac24/scratch/usuresh3/paper/berny_results/hcch/Gau-1282850.EIn"
         output file      "/lustre/isaac24/scratch/usuresh3/paper/berny_results/hcch/Gau-1282850.EOu"
         message file     "/lustre/isaac24/scratch/usuresh3/paper/berny_results/hcch/Gau-1282850.EMs"
         fchk file        "/lustre/isaac24/scratch/usuresh3/paper/berny_results/hcch/Gau-1282850.EFC"
         mat. el file     "/lustre/isaac24/scratch/usuresh3/paper/berny_results/hcch/Gau-1282850.EUF"

 ExternalExternalExternalExternalExternalExternalExternalExternalExternalExternal
 Output from external command:
 "/lustre/isaac24/scratch/usuresh3/xtb-gaussian/xtb-g R /lustre/isaac24/scratch/usuresh3/paper/berny_results/hcch/Gau-1282850.EIn /lustre/isaac24/scratch/usuresh3/paper/berny_results/hcch/Gau-1282850.EOu /lustre/isaac24/scratch/usuresh3/paper/berny_results/hcch/Gau-1282850.EMs /lustre/isaac24/scratch/usuresh3/paper/berny_results/hcch/Gau-1282850.EFC /lustre/isaac24/scratch/usuresh3/paper/berny_results/hcch/Gau-1282850.EUF"
 Note: The following floating-point exceptions are signalling: IEEE_DENORMAL
 normal termination of xtb
  
 ------- xtb command was ---------
 ?> xtb ./Gau-1282850.EIn  --grad --charge 0  >/dev/null 2>Gau-1282850.EMs
 ---------------------------------
              Control returned to Gaussian.
 ~~~~~~~~~~~~~~~~~~~~~~~~~~~~~~~~~~~~~~~~~~~~~~~~~~~~~~~~~~~~~~~~~~~~~~~~~
 ExternalExternalExternalExternalExternalExternalExternalExternalExternalExternal

 Recovered energy= -5.09219000819     dipole=     -0.435123669528      0.663754021498      0.000000000000
 Energy=    -5.09219001     NIter=   0.
 Dipole moment=      -0.435124       0.663754       0.000000
 Leave Link  402 at Thu Jul  9 07:41:41 2026, MaxMem=   268435456 cpu:               0.1 elap:               0.1
 (Enter /sw/isaac/applications/gaussian/16C01/rhel8_cascadelake_binary_x86_64_avx2/g16/l716.exe)
 Dipole        =-4.35123670D-01 6.63754021D-01 9.37756758D-16
 ***** Axes restored to original set *****
 -------------------------------------------------------------------
 Center     Atomic                   Forces (Hartrees/Bohr)
 Number     Number              X              Y              Z
 -------------------------------------------------------------------
      1        6           0.005903493   -0.024874874    0.000000000
      2        6           0.004222309    0.012122465   -0.000000000
      3        1           0.012549433    0.028512612    0.000000000
      4        1          -0.022675235   -0.015760203    0.000000000
 -------------------------------------------------------------------
 Cartesian Forces:  Max     0.028512612 RMS     0.014581382
 Leave Link  716 at Thu Jul  9 07:41:41 2026, MaxMem=   268435456 cpu:               0.0 elap:               0.0
 (Enter /sw/isaac/applications/gaussian/16C01/rhel8_cascadelake_binary_x86_64_avx2/g16/l103.exe)

 GradGradGradGradGradGradGradGradGradGradGradGradGradGradGradGradGradGrad
 Berny optimization.
 FormGI is forming the generalized inverse of G from B-inverse, IUseBI=4.
 Internal  Forces:  Max     0.004605146 RMS     0.003359224
 Search for a saddle point.
 Step number  19 out of a maximum of   20
 All quantities printed in internal units (Hartrees-Bohrs-Radians)
 Swapping is turned off.
 Update second derivatives using D2CorX and points   13   14   15   16   17
                                                     18   19
 The second derivative matrix:
                          R1        R2        R3        A1        A2
           R1           0.94649
           R2           0.01594   0.20745
           R3           0.06171  -0.01442   0.42566
           A1           0.15749   0.18409   0.01892  -0.12355
           A2           0.16001   0.00811   0.05840  -0.00912   0.27723
           A3          -0.00000   0.00000   0.00000  -0.00000   0.00000
                          A3
           A3           0.02661
 ITU=  0  0  0  0  0  0  0
     Eigenvalues ---   -0.22438   0.02661   0.23314   0.28132   0.42843
     Eigenvalues ---    1.01478
 Eigenvectors required to have negative eigenvalues:
                          A1        R2        R1        A2        R3
   1                   -0.91115   0.38603   0.12478  -0.06602   0.02917
                          A3
   1                   -0.00000
 RFO step:  Lambda0=2.123211574D-05 Lambda=-1.44954049D-04.
 Linear search not attempted -- option 19 set.
 Iteration  1 RMS(Cart)=  0.00746983 RMS(Int)=  0.00003606
 Iteration  2 RMS(Cart)=  0.00003548 RMS(Int)=  0.00000001
 Iteration  3 RMS(Cart)=  0.00000000 RMS(Int)=  0.00000000
 ITry= 1 IFail=0 DXMaxC= 1.06D-02 DCOld= 1.00D+10 DXMaxT= 3.00D-01 DXLimC= 3.00D+00 Rises=F
 ClnCor:  largest displacement from symmetrization is 2.48D-11 for atom     2.
 Variable       Old X    -DE/DX   Delta X   Delta X   Delta X     New X
                                 (Linear)    (Quad)   (Total)
    R1        2.34366   0.00439   0.00000   0.00254   0.00254   2.34619
    R2        2.28806   0.00328   0.00000   0.01824   0.01824   2.30631
    R3        2.05395   0.00013   0.00000  -0.00130  -0.00130   2.05264
    A1        1.22515   0.00406   0.00000  -0.00371  -0.00371   1.22144
    A2        4.05066   0.00461   0.00000   0.01476   0.01476   4.06542
    A3        3.14159  -0.00000   0.00000  -0.00000   0.00000   3.14159
         Item               Value     Threshold  Converged?
 Maximum Force            0.004605     0.000450     NO 
 RMS     Force            0.003359     0.000300     NO 
 Maximum Displacement     0.010623     0.001800     NO 
 RMS     Displacement     0.007484     0.001200     NO 
 Predicted change in Energy=-6.189461D-05
 GradGradGradGradGradGradGradGradGradGradGradGradGradGradGradGradGradGrad

 Leave Link  103 at Thu Jul  9 07:41:41 2026, MaxMem=   268435456 cpu:               0.0 elap:               0.0
 (Enter /sw/isaac/applications/gaussian/16C01/rhel8_cascadelake_binary_x86_64_avx2/g16/l202.exe)
                          Input orientation:                          
 ---------------------------------------------------------------------
 Center     Atomic      Atomic             Coordinates (Angstroms)
 Number     Number       Type             X           Y           Z
 ---------------------------------------------------------------------
      1          6           0       -0.551616   -0.168968    0.000000
      2          6           0        0.625408    0.226080    0.000000
      3          1           0        1.521894   -0.387249    0.000000
      4          1           0       -0.520455    1.051078    0.000000
 ---------------------------------------------------------------------
                    Distance matrix (angstroms):
                    1          2          3          4
     1  C    0.000000
     2  C    1.241551   0.000000
     3  H    2.084968   1.086212   0.000000
     4  H    1.220444   1.411958   2.497993   0.000000
 Stoichiometry    C2H2
 Framework group  CS[SG(C2H2)]
 Deg. of freedom     5
 Full point group                 CS      NOp   2
 RotChk:  IX=0 Diff= 1.08D-02
 Largest Abelian subgroup         CS      NOp   2
 Largest concise Abelian subgroup C1      NOp   1
                         Standard orientation:                         
 ---------------------------------------------------------------------
 Center     Atomic      Atomic             Coordinates (Angstroms)
 Number     Number       Type             X           Y           Z
 ---------------------------------------------------------------------
      1          6           0        0.020001   -0.697382    0.000000
      2          6           0        0.020001    0.544170    0.000000
      3          1           0        0.886705    1.198908    0.000000
      4          1           0       -1.126721   -0.279635    0.000000
 ---------------------------------------------------------------------
 Rotational constants (GHZ):         269.7018852          45.5690037          38.9824961
 Leave Link  202 at Thu Jul  9 07:41:41 2026, MaxMem=   268435456 cpu:               0.0 elap:               0.0
 (Enter /sw/isaac/applications/gaussian/16C01/rhel8_cascadelake_binary_x86_64_avx2/g16/l301.exe)
 Standard basis: STO-3G (5D, 7F)
 Ernie: Thresh=  0.10000D-02 Tol=  0.10000D-05 Strict=F.
 There are    10 symmetry adapted cartesian basis functions of A'  symmetry.
 There are     2 symmetry adapted cartesian basis functions of A"  symmetry.
 There are    10 symmetry adapted basis functions of A'  symmetry.
 There are     2 symmetry adapted basis functions of A"  symmetry.
    12 basis functions,    36 primitive gaussians,    12 cartesian basis functions
     7 alpha electrons        7 beta electrons
       nuclear repulsion energy        24.8520072646 Hartrees.
 IExCor=    0 DFT=F Ex=HF Corr=None ExCW=0 ScaHFX=  1.000000
 ScaDFX=  1.000000  1.000000  1.000000  1.000000 ScalE2=  1.000000  1.000000
 IRadAn=      5 IRanWt=     -1 IRanGd=            0 ICorTp=0 IEmpDi=  4
 NAtoms=    4 NActive=    4 NUniq=    4 SFac= 1.00D+00 NAtFMM=   60 NAOKFM=F Big=F
 Integral buffers will be    131072 words long.
 Raffenetti 1 integral format.
 Two-electron integral symmetry is turned on.
 Leave Link  301 at Thu Jul  9 07:41:41 2026, MaxMem=   268435456 cpu:               0.0 elap:               0.0
 (Enter /sw/isaac/applications/gaussian/16C01/rhel8_cascadelake_binary_x86_64_avx2/g16/l402.exe)
 External calculation of energy and first derivatives.
 Running external command "/lustre/isaac24/scratch/usuresh3/xtb-gaussian/xtb-g R"
         input file       "/lustre/isaac24/scratch/usuresh3/paper/berny_results/hcch/Gau-1282850.EIn"
         output file      "/lustre/isaac24/scratch/usuresh3/paper/berny_results/hcch/Gau-1282850.EOu"
         message file     "/lustre/isaac24/scratch/usuresh3/paper/berny_results/hcch/Gau-1282850.EMs"
         fchk file        "/lustre/isaac24/scratch/usuresh3/paper/berny_results/hcch/Gau-1282850.EFC"
         mat. el file     "/lustre/isaac24/scratch/usuresh3/paper/berny_results/hcch/Gau-1282850.EUF"

 ExternalExternalExternalExternalExternalExternalExternalExternalExternalExternal
 Output from external command:
 "/lustre/isaac24/scratch/usuresh3/xtb-gaussian/xtb-g R /lustre/isaac24/scratch/usuresh3/paper/berny_results/hcch/Gau-1282850.EIn /lustre/isaac24/scratch/usuresh3/paper/berny_results/hcch/Gau-1282850.EOu /lustre/isaac24/scratch/usuresh3/paper/berny_results/hcch/Gau-1282850.EMs /lustre/isaac24/scratch/usuresh3/paper/berny_results/hcch/Gau-1282850.EFC /lustre/isaac24/scratch/usuresh3/paper/berny_results/hcch/Gau-1282850.EUF"
 Note: The following floating-point exceptions are signalling: IEEE_DENORMAL
 normal termination of xtb
  
 ------- xtb command was ---------
 ?> xtb ./Gau-1282850.EIn  --grad --charge 0  >/dev/null 2>Gau-1282850.EMs
 ---------------------------------
              Control returned to Gaussian.
 ~~~~~~~~~~~~~~~~~~~~~~~~~~~~~~~~~~~~~~~~~~~~~~~~~~~~~~~~~~~~~~~~~~~~~~~~~
 ExternalExternalExternalExternalExternalExternalExternalExternalExternalExternal

 Recovered energy= -5.09082335425     dipole=     -0.431409504205      0.667206629393      0.000000000000
 Energy=    -5.09082335     NIter=   0.
 Dipole moment=      -0.431410       0.667207       0.000000
 Leave Link  402 at Thu Jul  9 07:41:41 2026, MaxMem=   268435456 cpu:               0.0 elap:               0.1
 (Enter /sw/isaac/applications/gaussian/16C01/rhel8_cascadelake_binary_x86_64_avx2/g16/l716.exe)
 Dipole        =-4.31409504D-01 6.67206629D-01 5.95994241D-16
 ***** Axes restored to original set *****
 -------------------------------------------------------------------
 Center     Atomic                   Forces (Hartrees/Bohr)
 Number     Number              X              Y              Z
 -------------------------------------------------------------------
      1        6           0.006835207   -0.023031500    0.000000000
      2        6           0.000746805    0.011789192   -0.000000000
      3        1           0.013677056    0.028964504    0.000000000
      4        1          -0.021259068   -0.017722196    0.000000000
 -------------------------------------------------------------------
 Cartesian Forces:  Max     0.028964504 RMS     0.014458969
 Leave Link  716 at Thu Jul  9 07:41:41 2026, MaxMem=   268435456 cpu:               0.0 elap:               0.0
 (Enter /sw/isaac/applications/gaussian/16C01/rhel8_cascadelake_binary_x86_64_avx2/g16/l103.exe)

 GradGradGradGradGradGradGradGradGradGradGradGradGradGradGradGradGradGrad
 Berny optimization.
 FormGI is forming the generalized inverse of G from B-inverse, IUseBI=4.
 Internal  Forces:  Max     0.002648206 RMS     0.001555865
 Search for a saddle point.
 Step number  20 out of a maximum of   20
 All quantities printed in internal units (Hartrees-Bohrs-Radians)
 Swapping is turned off.
 Update second derivatives using D2CorX and points   14   15   16   17   18
                                                     19   20
 The second derivative matrix:
                          R1        R2        R3        A1        A2
           R1           0.89570
           R2          -0.03673   0.18229
           R3           0.05462  -0.03770   0.41949
           A1           0.14259   0.20497   0.01792  -0.19426
           A2           0.08189  -0.04695   0.03705  -0.07119   0.16192
           A3          -0.00000   0.00000   0.00000  -0.00000   0.00000
                          A3
           A3           0.02661
 ITU=  0  0  0  0  0  0  0
     Eigenvalues ---   -0.30995   0.02661   0.12458   0.29559   0.42635
     Eigenvalues ---    0.92857
 Eigenvectors required to have negative eigenvalues:
                          A1        R2        R1        A2        R3
   1                    0.90778  -0.37850  -0.12557   0.12414  -0.03877
                          A3
   1                    0.00000
 RFO step:  Lambda0=1.897484876D-07 Lambda=-7.11997861D-05.
 Linear search not attempted -- option 19 set.
 Iteration  1 RMS(Cart)=  0.01046408 RMS(Int)=  0.00008528
 Iteration  2 RMS(Cart)=  0.00008152 RMS(Int)=  0.00000000
 Iteration  3 RMS(Cart)=  0.00000000 RMS(Int)=  0.00000000
 ITry= 1 IFail=0 DXMaxC= 1.18D-02 DCOld= 1.00D+10 DXMaxT= 3.00D-01 DXLimC= 3.00D+00 Rises=F
 ClnCor:  largest displacement from symmetrization is 1.05D-10 for atom     2.
 Variable       Old X    -DE/DX   Delta X   Delta X   Delta X     New X
                                 (Linear)    (Quad)   (Total)
    R1        2.34619   0.00218   0.00000   0.00057   0.00057   2.34676
    R2        2.30631   0.00145   0.00000   0.01049   0.01049   2.31679
    R3        2.05264   0.00075   0.00000   0.00076   0.00076   2.05341
    A1        1.22144   0.00031   0.00000   0.00260   0.00260   1.22404
    A2        4.06542   0.00265   0.00000   0.02007   0.02007   4.08549
    A3        3.14159  -0.00000   0.00000  -0.00000   0.00000   3.14159
         Item               Value     Threshold  Converged?
 Maximum Force            0.002648     0.000450     NO 
 RMS     Force            0.001556     0.000300     NO 
 Maximum Displacement     0.011796     0.001800     NO 
 RMS     Displacement     0.010499     0.001200     NO 
 Predicted change in Energy=-3.552354D-05
 Optimization stopped.
    -- Number of steps exceeded,  NStep=  20
    -- Flag reset to prevent archiving.
                           ----------------------------
                           ! Non-Optimized Parameters !
                           ! (Angstroms and Degrees)  !
 --------------------------                            --------------------------
 ! Name  Definition              Value          Derivative Info.                !
 --------------------------------------------------------------------------------
 ! R1    R(1,2)                  1.2419         -DE/DX =    0.0022              !
 ! R2    R(1,4)                  1.226          -DE/DX =    0.0015              !
 ! R3    R(2,3)                  1.0866         -DE/DX =    0.0007              !
 ! A1    A(2,1,4)               70.1325         -DE/DX =    0.0003              !
 ! A2    L(1,2,3,4,-1)         234.0812         -DE/DX =    0.0026              !
 ! A3    L(1,2,3,4,-2)         180.0            -DE/DX =    0.0                 !
 --------------------------------------------------------------------------------
 Largest change from initial coordinates is atom    3       0.129 Angstoms.
 GradGradGradGradGradGradGradGradGradGradGradGradGradGradGradGradGradGrad

 Leave Link  103 at Thu Jul  9 07:41:41 2026, MaxMem=   268435456 cpu:               0.0 elap:               0.0
 (Enter /sw/isaac/applications/gaussian/16C01/rhel8_cascadelake_binary_x86_64_avx2/g16/l202.exe)
                          Input orientation:                          
 ---------------------------------------------------------------------
 Center     Atomic      Atomic             Coordinates (Angstroms)
 Number     Number       Type             X           Y           Z
 ---------------------------------------------------------------------
      1          6           0       -0.551616   -0.168968    0.000000
      2          6           0        0.625408    0.226080    0.000000
      3          1           0        1.521894   -0.387249    0.000000
      4          1           0       -0.520455    1.051078    0.000000
 ---------------------------------------------------------------------
                    Distance matrix (angstroms):
                    1          2          3          4
     1  C    0.000000
     2  C    1.241551   0.000000
     3  H    2.084968   1.086212   0.000000
     4  H    1.220444   1.411958   2.497993   0.000000
 Stoichiometry    C2H2
 Framework group  CS[SG(C2H2)]
 Deg. of freedom     5
 Full point group                 CS      NOp   2
 RotChk:  IX=0 Diff= 2.73D-17
 Largest Abelian subgroup         CS      NOp   2
 Largest concise Abelian subgroup C1      NOp   1
                         Standard orientation:                         
 ---------------------------------------------------------------------
 Center     Atomic      Atomic             Coordinates (Angstroms)
 Number     Number       Type             X           Y           Z
 ---------------------------------------------------------------------
      1          6           0        0.020001   -0.697382    0.000000
      2          6           0        0.020001    0.544170    0.000000
      3          1           0        0.886705    1.198908    0.000000
      4          1           0       -1.126721   -0.279635    0.000000
 ---------------------------------------------------------------------
 Rotational constants (GHZ):         269.7018852          45.5690037          38.9824961
 Leave Link  202 at Thu Jul  9 07:41:41 2026, MaxMem=   268435456 cpu:               0.0 elap:               0.0
 (Enter /sw/isaac/applications/gaussian/16C01/rhel8_cascadelake_binary_x86_64_avx2/g16/l601.exe)
 Leave Link  601 at Thu Jul  9 07:41:41 2026, MaxMem=   268435456 cpu:               0.0 elap:               0.0
 (Enter /sw/isaac/applications/gaussian/16C01/rhel8_cascadelake_binary_x86_64_avx2/g16/l9999.exe)


 SUCCESS IS NEVER CERTAIN,
 FAILURE IS NEVER FINAL.
 Error termination request processed by link 9999.
 Error termination via Lnk1e in /sw/isaac/applications/gaussian/16C01/rhel8_cascadelake_binary_x86_64_avx2/g16/l9999.exe at Thu Jul  9 07:41:41 2026.
 Job cpu time:       0 days  0 hours  0 minutes  4.3 seconds.
 Elapsed time:       0 days  0 hours  0 minutes  3.0 seconds.
 File lengths (MBytes):  RWF=      6 Int=      0 D2E=      0 Chk=      1 Scr=      1
