4
Properties=species:S:1:pos:R:3:forces:R:3:charge:R:1 0=T 1=T energy=-195.25932655129267 free_energy=-195.25932655129267 dipole="-2.0706649210627234e-05 0.4862223614087046 -0.00013785712420406632" pbc="F F F"
H        9.27289837      11.04545024       9.85539227      -0.00798943       0.00068918      -0.00106612       0.04216232
H       11.12635376      11.04553035       9.85538860       0.00793597       0.00064275      -0.00106646       0.04216178
C       10.19965038      10.44754388       9.85527288       0.00004376      -0.00472639       0.00320368       0.18354742
O       10.19970006       9.25542412       9.85572550       0.00000970       0.00339446      -0.00107110      -0.26787153
4
Properties=species:S:1:pos:R:3:forces:R:3:charge:R:1 0=T 1=T energy=-195.2593174045589 free_energy=-195.2593174045589 dipole="-0.12928084371739812 0.46810484166049643 -0.018721781491316435" pbc="F F F"
H        9.13291782      10.84776482       9.71073497       0.01856995      -0.00029962       0.00542482       0.04202244
H       10.87718953      11.34759282      10.09702066      -0.00238972      -0.00650657       0.00077642       0.04225269
C       10.16512757      10.52214239       9.92751990      -0.02203157       0.00161170      -0.00901100       0.18356125
O       10.48279538       9.37407676       9.97341002       0.00585133       0.00519449       0.00280976      -0.26783638
4
Properties=species:S:1:pos:R:3:forces:R:3:charge:R:1 0=T 1=T energy=-195.12963061851954 free_energy=-195.12963061851954 dipole="-0.07324126584412069 0.47599334137743704 -0.019596940360196324" pbc="F F F"
H        9.29545719      11.04652770       9.65103628      -0.98057954      -0.68250345      -0.25856258       0.04023960
H       10.95614676      11.21349487      10.10173847       0.26211693      -0.90334666       0.08015420       0.02298145
C       10.16363485      10.43449139       9.88850418       1.02780811       0.95457845       0.25419801       0.19057458
O       10.31151175       9.25156415       9.92714946      -0.30934549       0.63127166      -0.07578962      -0.25379564
4
Properties=species:S:1:pos:R:3:forces:R:3:charge:R:1 0=T 1=T energy=-193.733432817334 free_energy=-193.733432817334 dipole="-0.2373629309900201 0.37271078801451263 -0.06377490501812352" pbc="F F F"
H        9.42270188      11.13331913       9.68657300      -3.11788728      -1.00868286      -0.84256490       0.09789588
H       10.91764119      11.33276666      10.09180268       0.25447224      -2.42025083       0.07146905      -0.09461635
C       10.03505362      10.30800111       9.85271442       3.72253386       2.85248058       0.99933715       0.20226985
O       10.35169721       9.17126424       9.93663752      -0.85911882       0.57645311      -0.22824130      -0.20554937
4
Properties=species:S:1:pos:R:3:forces:R:3:charge:R:1 0=T 1=T energy=-192.38860050790782 free_energy=-192.38860050790782 dipole="-0.3299385084983905 0.22347790956479577 -0.08877768983988539" pbc="F F F"
H        9.54248137      11.17201706       9.71870084      -2.10790446      -0.35327963      -0.56361113       0.17527425
H       10.90862067      11.42577660      10.08884374       0.56286085      -1.09210701       0.15466161      -0.20754462
C        9.89047631      10.19860108       9.81446294       1.86723272       1.51407714       0.48897366       0.18325240
O       10.38548917       9.14901227       9.94577395      -0.32218911      -0.06869050      -0.08002415      -0.15098204
4
Properties=species:S:1:pos:R:3:forces:R:3:charge:R:1 0=T 1=T energy=-192.21483518560592 free_energy=-192.21483518560592 dipole="-0.1578918618126195 0.19623210647529737 -0.04286832323734959" pbc="F F F"
H        9.72808124      11.20313142       9.76839380       1.00005113       0.22035303       0.27707828       0.18174285
H       10.85983907      11.52237685      10.07546825      -0.29901656       0.51583581      -0.08524149      -0.14282669
C        9.72440650      10.06392752       9.77032993      -0.82471927      -0.74247792      -0.22839548       0.10542297
O       10.41479199       9.15586262       9.95348480       0.12368471       0.00628908       0.03655869      -0.14433913
4
Properties=species:S:1:pos:R:3:forces:R:3:charge:R:1 0=T 1=T energy=-192.97554142876325 free_energy=-192.97554142876325 dipole="0.05283865496307264 0.16180634625343734 0.01418818367723919" pbc="F F F"
H        9.94089991      11.29092951       9.82723701       1.18221280       0.50649704       0.31840765       0.09983242
H       10.76266532      11.62499477      10.04835913      -0.54312059       0.57726744      -0.14638421      -0.01474808
C        9.60914509       9.90449078       9.73815206      -0.66574901      -0.89740633      -0.17924082       0.04739899
O       10.41438588       9.12493122       9.95397474       0.02665680      -0.18635814       0.00721738      -0.13248332
4
Properties=species:S:1:pos:R:3:forces:R:3:charge:R:1 0=T 1=T energy=-193.3469062731589 free_energy=-193.3469062731589 dipole="0.09548751004070499 0.04219189540714238 0.026988406089465938" pbc="F F F"
H       10.09509941      11.38252766       9.86150884       0.12160231       0.09067525       0.03538210       0.03336140
H       10.71656385      11.87392027      10.03776800      -0.02796311       0.20151024      -0.00983071       0.00947654
C        9.53987511       9.70753237       9.71283742      -0.01956946      -0.18393154      -0.00520008       0.04840446
O       10.37593009       8.98057776       9.95484886      -0.07406974      -0.10825395      -0.02035131      -0.09124240
4
Properties=species:S:1:pos:R:3:forces:R:3:charge:R:1 0=T 1=T energy=-193.39702007650226 free_energy=-193.39702007650226 dipole="0.09499081044140535 -0.011598936385143544 0.01605427754596114" pbc="F F F"
H       10.21943059      11.44678823       9.92604446      -0.00159151       0.00445947      -0.00199673       0.01387550
H       10.68508381      12.08757728      10.02116467      -0.00127049       0.00974789       0.00134352       0.01031842
C        9.51643910       9.60215848       9.75029054       0.02522833      -0.01074853       0.00485309       0.05094379
O       10.30893699       8.80290601       9.86452011      -0.02236633      -0.00345883      -0.00419988      -0.07513772
4
Properties=species:S:1:pos:R:3:forces:R:3:charge:R:1 0=T 1=T energy=-193.39741621860512 free_energy=-193.39741621860512 dipole="0.08229522095667825 -0.013698032508628803 0.047418744918115395" pbc="F F F"
H       10.19289495      11.46610052       9.90972699      -0.00189258      -0.00195548       0.00239851       0.01311492
H       10.56799677      12.13156113      10.13749384       0.00212333       0.00421301      -0.00118577       0.00962020
C        9.62426527       9.58079992       9.57228580      -0.00813226       0.00800101      -0.00616974       0.05116704
O       10.32954754       8.79312109       9.97350753       0.00790151      -0.01025853       0.00495700      -0.07390216
4
Properties=species:S:1:pos:R:3:forces:R:3:charge:R:1 0=T 1=T energy=-193.39718283462844 free_energy=-193.39718283462844 dipole="0.07264813099900987 -0.006561704532602797 0.06228470751549811" pbc="F F F"
H       10.14540059      11.47875538       9.89798419       0.00765020       0.00523680       0.00915973       0.01427409
H       10.46728089      12.15181322      10.18197697      -0.00350414       0.00690812      -0.00477218       0.00953607
C        9.71114343       9.58416322       9.51908696      -0.00757122      -0.00504507      -0.00763181       0.05110722
O       10.35492474       8.83297672      10.06734953       0.00342516      -0.00709985       0.00324426      -0.07491737
4
Properties=species:S:1:pos:R:3:forces:R:3:charge:R:1 0=T 1=T energy=-193.3974276232524 free_energy=-193.3974276232524 dipole="0.06362138623919085 -0.008013407591267877 0.07148715817929312" pbc="F F F"
H       10.12153185      11.50756055       9.91115385      -0.00184991      -0.00387050      -0.00191456       0.01290127
H       10.37523030      12.20201187      10.20846980       0.00161354       0.00456183       0.00173003       0.00962594
C        9.78099731       9.57955788       9.49672582      -0.01268535       0.01693658      -0.01410411       0.05116294
O       10.35910124       8.84726810      10.13554302       0.01292172      -0.01762791       0.01428864      -0.07369015
