 Entering Gaussian System
 *********************************************
 Gaussian 98:
 frequency output generated by the xtb code
 *********************************************
                         Standard orientation:
 --------------------------------------------------------------------
  Center     Atomic     Atomic              Coordinates (Angstroms)
  Number     Number      Type              X           Y           Z
 --------------------------------------------------------------------
    1          6             0       -0.732101   -0.128106    0.000003
    2          6             0        0.517054   -0.016081   -0.000002
    3          1             0        1.577096   -0.142030   -0.000005
    4          1             0       -0.286815    1.007153   -0.000001
 --------------------------------------------------------------------
     1 basis functions        1 primitive gaussians
     1 alpha electrons        1 beta electrons

 Harmonic frequencies (cm**-1), IR intensities (km*mol⁻¹),
 Raman scattering activities (A**4/amu), Raman depolarization ratios,
 reduced masses (AMU), force constants (mDyne/A) and normal coordinates:
                      1                      2                      3
                        a                      a                      a 
 Frequencies --  -937.3510               723.5480               835.3054
 Red. masses --     2.2942                 3.7941                 3.7061
 Frc consts  --     0.0000                 0.0000                 0.0000
 IR Inten    --    40.0902                69.0684                17.3729
 Raman Activ --     0.0000                 0.0000                 0.0000
 Depolar     --     0.0000                 0.0000                 0.0000
 Atom AN      X      Y      Z        X      Y      Z        X      Y      Z
   1   6    -0.16  -0.22   0.00    -0.00  -0.00  -0.18     0.07  -0.21  -0.00
   2   6    -0.10   0.18  -0.00     0.00   0.00   0.47    -0.02   0.45   0.00
   3   1    -0.02   0.10   0.00    -0.00   0.00  -0.85    -0.12  -0.86   0.00
   4   1     0.93   0.03  -0.00     0.00  -0.00  -0.17    -0.04   0.03  -0.00
                      4                      5                      6
                        a                      a                      a 
 Frequencies --  1888.4118              2214.0656              3163.3581
 Red. masses --    10.9146                 1.7698                 2.2049
 Frc consts  --     0.0000                 0.0000                 0.0000
 IR Inten    --     4.1957                 5.7658                32.1330
 Raman Activ --     0.0000                 0.0000                 0.0000
 Depolar     --     0.0000                 0.0000                 0.0000
 Atom AN      X      Y      Z        X      Y      Z        X      Y      Z
   1   6    -0.69  -0.02   0.00    -0.12  -0.17   0.00     0.05   0.01  -0.00
   2   6     0.64   0.09  -0.00     0.12  -0.10  -0.00    -0.32   0.03   0.00
   3   1     0.25  -0.06  -0.00     0.07   0.00  -0.00     0.94  -0.11  -0.00
   4   1    -0.06  -0.18   0.00    -0.05   0.96  -0.00     0.01  -0.02  -0.00
