 Entering Gaussian System, Link 0=g16
 Initial command:
 /sw/isaac/applications/gaussian/16C01/rhel8_cascadelake_binary_x86_64_avx2/g16/l1.exe "/lustre/isaac24/scratch/usuresh3/paper/berny_results/migration/Gau-1283090.inp" -scrdir="/lustre/isaac24/scratch/usuresh3/paper/berny_results/migration/"
 Entering Link 1 = /sw/isaac/applications/gaussian/16C01/rhel8_cascadelake_binary_x86_64_avx2/g16/l1.exe PID=   1283091.
  
 Copyright (c) 1988-2019, Gaussian, Inc.  All Rights Reserved.
  
 This is part of the Gaussian(R) 16 program.  It is based on
 the Gaussian(R) 09 system (copyright 2009, Gaussian, Inc.),
 the Gaussian(R) 03 system (copyright 2003, Gaussian, Inc.),
 the Gaussian(R) 98 system (copyright 1998, Gaussian, Inc.),
 the Gaussian(R) 94 system (copyright 1995, Gaussian, Inc.),
 the Gaussian 92(TM) system (copyright 1992, Gaussian, Inc.),
 the Gaussian 90(TM) system (copyright 1990, Gaussian, Inc.),
 the Gaussian 88(TM) system (copyright 1988, Gaussian, Inc.),
 the Gaussian 86(TM) system (copyright 1986, Carnegie Mellon
 University), and the Gaussian 82(TM) system (copyright 1983,
 Carnegie Mellon University). Gaussian is a federally registered
 trademark of Gaussian, Inc.
  
 This software contains proprietary and confidential information,
 including trade secrets, belonging to Gaussian, Inc.
  
 This software is provided under written license and may be
 used, copied, transmitted, or stored only in accord with that
 written license.
  
 The following legend is applicable only to US Government
 contracts under FAR:
  
                    RESTRICTED RIGHTS LEGEND
  
 Use, reproduction and disclosure by the US Government is
 subject to restrictions as set forth in subparagraphs (a)
 and (c) of the Commercial Computer Software - Restricted
 Rights clause in FAR 52.227-19.
  
 Gaussian, Inc.
 340 Quinnipiac St., Bldg. 40, Wallingford CT 06492
  
  
 ---------------------------------------------------------------
 Warning -- This program may not be used in any manner that
 competes with the business of Gaussian, Inc. or will provide
 assistance to any competitor of Gaussian, Inc.  The licensee
 of this program is prohibited from giving any competitor of
 Gaussian, Inc. access to this program.  By using this program,
 the user acknowledges that Gaussian, Inc. is engaged in the
 business of creating and licensing software in the field of
 computational chemistry and represents and warrants to the
 licensee that it is not a competitor of Gaussian, Inc. and that
 it will not use this program in any manner prohibited above.
 ---------------------------------------------------------------
  

 Cite this work as:
 Gaussian 16, Revision C.01,
 M. J. Frisch, G. W. Trucks, H. B. Schlegel, G. E. Scuseria, 
 M. A. Robb, J. R. Cheeseman, G. Scalmani, V. Barone, 
 G. A. Petersson, H. Nakatsuji, X. Li, M. Caricato, A. V. Marenich, 
 J. Bloino, B. G. Janesko, R. Gomperts, B. Mennucci, H. P. Hratchian, 
 J. V. Ortiz, A. F. Izmaylov, J. L. Sonnenberg, D. Williams-Young, 
 F. Ding, F. Lipparini, F. Egidi, J. Goings, B. Peng, A. Petrone, 
 T. Henderson, D. Ranasinghe, V. G. Zakrzewski, J. Gao, N. Rega, 
 G. Zheng, W. Liang, M. Hada, M. Ehara, K. Toyota, R. Fukuda, 
 J. Hasegawa, M. Ishida, T. Nakajima, Y. Honda, O. Kitao, H. Nakai, 
 T. Vreven, K. Throssell, J. A. Montgomery, Jr., J. E. Peralta, 
 F. Ogliaro, M. J. Bearpark, J. J. Heyd, E. N. Brothers, K. N. Kudin, 
 V. N. Staroverov, T. A. Keith, R. Kobayashi, J. Normand, 
 K. Raghavachari, A. P. Rendell, J. C. Burant, S. S. Iyengar, 
 J. Tomasi, M. Cossi, J. M. Millam, M. Klene, C. Adamo, R. Cammi, 
 J. W. Ochterski, R. L. Martin, K. Morokuma, O. Farkas, 
 J. B. Foresman, and D. J. Fox, Gaussian, Inc., Wallingford CT, 2019.
 
 ******************************************
 Gaussian 16:  ES64L-G16RevC.01  3-Jul-2019
                 9-Jul-2026 
 ******************************************
 %nprocshared=2
 Will use up to    2 processors via shared memory.
 %mem=2GB
 %chk=migration.chk
 ----------------------------------------------------------------------
 #p External="/lustre/isaac24/scratch/usuresh3/xtb-gaussian/xtb-g" Opt=
 (TS, CalcFC, NoEigenTest, NoMicro)
 ----------------------------------------------------------------------
 1/5=1,10=4,11=1,18=20,26=1,38=1/1,3;
 2/9=110,12=2,17=6,18=5,40=1/2;
 3/11=9,25=1,30=1,41=9900000,43=2,71=2,140=1/1;
 4/20=17,22=2,24=3,113=1,114=1/2;
 6/7=2,8=2,9=2,10=2/1;
 7/25=1,44=-1/16;
 1/5=1,10=4,11=1,18=20,26=1/3(2);
 2/9=110/2;
 99//99;
 2/9=110/2;
 3/11=9,25=1,30=1,41=9900000,43=2,71=1/1;
 4/16=2,20=17,22=1,24=3,113=1,114=1/2;
 7/44=-1/16;
 1/5=1,11=1,18=20,26=1/3(-4);
 2/9=110/2;
 6/7=2,8=2,9=2,10=2/1;
 99/9=10/99;
 Leave Link    1 at Thu Jul  9 07:41:42 2026, MaxMem=   268435456 cpu:               0.1 elap:               0.0
 (Enter /sw/isaac/applications/gaussian/16C01/rhel8_cascadelake_binary_x86_64_avx2/g16/l101.exe)
 -------------------------------------------
 Title: migration ts search via xTB-Gaussian
 -------------------------------------------
 Symbolic Z-matrix:
 Charge =  0 Multiplicity = 2
 C                     1.03622  -0.61877  -0.11176 
 C                    -1.18723  -0.11482   0.07616 
 C                     1.0718    0.83451   0.19234 
 O                    -0.33467  -1.13243   0.00804 
 O                    -0.78799   1.02118  -0.22834 
 H                     1.50162   1.51014  -0.52163 
 H                     1.07849   1.14306   1.22333 
 H                    -2.09153  -0.31599   0.65445 
 H                     1.36381  -0.8304   -1.13315 
 H                     1.60408  -1.22229   0.59892 
 
 Add atom      2 valence  3 ND=      2 dihedral       4      2      5      8
 ITRead=  0  0  0  0  0  0  0  0  0  0
 MicOpt= -1 -1 -1 -1 -1 -1 -1 -1 -1 -1
 NAtoms=     10 NQM=       10 NQMF=       0 NMMI=      0 NMMIF=      0
                NMic=       0 NMicF=      0.
                    Isotopes and Nuclear Properties:
 (Nuclear quadrupole moments (NQMom) in fm**2, nuclear magnetic moments (NMagM)
  in nuclear magnetons)

  Atom         1           2           3           4           5           6           7           8           9          10
 IAtWgt=          12          12          12          16          16           1           1           1           1           1
 AtmWgt=  12.0000000  12.0000000  12.0000000  15.9949146  15.9949146   1.0078250   1.0078250   1.0078250   1.0078250   1.0078250
 NucSpn=           0           0           0           0           0           1           1           1           1           1
 AtZEff=  -0.0000000  -0.0000000  -0.0000000  -0.0000000  -0.0000000  -0.0000000  -0.0000000  -0.0000000  -0.0000000  -0.0000000
 NQMom=    0.0000000   0.0000000   0.0000000   0.0000000   0.0000000   0.0000000   0.0000000   0.0000000   0.0000000   0.0000000
 NMagM=    0.0000000   0.0000000   0.0000000   0.0000000   0.0000000   2.7928460   2.7928460   2.7928460   2.7928460   2.7928460
 AtZNuc=   6.0000000   6.0000000   6.0000000   8.0000000   8.0000000   1.0000000   1.0000000   1.0000000   1.0000000   1.0000000
 Leave Link  101 at Thu Jul  9 07:41:42 2026, MaxMem=   268435456 cpu:               0.1 elap:               0.0
 (Enter /sw/isaac/applications/gaussian/16C01/rhel8_cascadelake_binary_x86_64_avx2/g16/l103.exe)

 GradGradGradGradGradGradGradGradGradGradGradGradGradGradGradGradGradGrad
 Berny optimization.
 Initialization pass.
                           ----------------------------
                           !    Initial Parameters    !
                           ! (Angstroms and Degrees)  !
 --------------------------                            --------------------------
 ! Name  Definition              Value          Derivative Info.                !
 --------------------------------------------------------------------------------
 ! R1    R(1,3)                  1.4852         calculate D2E/DX2 analytically  !
 ! R2    R(1,4)                  1.4688         calculate D2E/DX2 analytically  !
 ! R3    R(1,9)                  1.0933         calculate D2E/DX2 analytically  !
 ! R4    R(1,10)                 1.0917         calculate D2E/DX2 analytically  !
 ! R5    R(2,4)                  1.3293         calculate D2E/DX2 analytically  !
 ! R6    R(2,5)                  1.242          calculate D2E/DX2 analytically  !
 ! R7    R(2,8)                  1.0921         calculate D2E/DX2 analytically  !
 ! R8    R(3,6)                  1.0728         calculate D2E/DX2 analytically  !
 ! R9    R(3,7)                  1.0762         calculate D2E/DX2 analytically  !
 ! A1    A(3,1,4)              110.3559         calculate D2E/DX2 analytically  !
 ! A2    A(3,1,9)              111.9324         calculate D2E/DX2 analytically  !
 ! A3    A(3,1,10)             113.2782         calculate D2E/DX2 analytically  !
 ! A4    A(4,1,9)              106.7475         calculate D2E/DX2 analytically  !
 ! A5    A(4,1,10)             103.8309         calculate D2E/DX2 analytically  !
 ! A6    A(9,1,10)             110.2005         calculate D2E/DX2 analytically  !
 ! A7    A(4,2,5)              118.7803         calculate D2E/DX2 analytically  !
 ! A8    A(4,2,8)              114.6574         calculate D2E/DX2 analytically  !
 ! A9    A(5,2,8)              124.3666         calculate D2E/DX2 analytically  !
 ! A10   A(1,3,6)              119.3124         calculate D2E/DX2 analytically  !
 ! A11   A(1,3,7)              118.4803         calculate D2E/DX2 analytically  !
 ! A12   A(6,3,7)              117.0327         calculate D2E/DX2 analytically  !
 ! A13   A(1,4,2)              109.5762         calculate D2E/DX2 analytically  !
 ! D1    D(4,1,3,6)           -125.7926         calculate D2E/DX2 analytically  !
 ! D2    D(4,1,3,7)             80.3635         calculate D2E/DX2 analytically  !
 ! D3    D(9,1,3,6)             -7.0601         calculate D2E/DX2 analytically  !
 ! D4    D(9,1,3,7)           -160.9041         calculate D2E/DX2 analytically  !
 ! D5    D(10,1,3,6)           118.2823         calculate D2E/DX2 analytically  !
 ! D6    D(10,1,3,7)           -35.5616         calculate D2E/DX2 analytically  !
 ! D7    D(3,1,4,2)             12.9878         calculate D2E/DX2 analytically  !
 ! D8    D(9,1,4,2)           -108.8613         calculate D2E/DX2 analytically  !
 ! D9    D(10,1,4,2)           134.6863         calculate D2E/DX2 analytically  !
 ! D10   D(5,2,4,1)             14.0311         calculate D2E/DX2 analytically  !
 ! D11   D(8,2,4,1)           -149.877          calculate D2E/DX2 analytically  !
 ! D12   D(4,2,5,8)           -162.2313         calculate D2E/DX2 analytically  !
 --------------------------------------------------------------------------------
 Trust Radius=3.00D-01 FncErr=1.00D-07 GrdErr=1.00D-07 EigMax=2.50D+02 EigMin=1.00D-04
 Number of steps in this run=     44 maximum allowed number of steps=    100.
 Search for a saddle point of order  1.
 GradGradGradGradGradGradGradGradGradGradGradGradGradGradGradGradGradGrad

 Leave Link  103 at Thu Jul  9 07:41:42 2026, MaxMem=   268435456 cpu:               0.0 elap:               0.0
 (Enter /sw/isaac/applications/gaussian/16C01/rhel8_cascadelake_binary_x86_64_avx2/g16/l202.exe)
                          Input orientation:                          
 ---------------------------------------------------------------------
 Center     Atomic      Atomic             Coordinates (Angstroms)
 Number     Number       Type             X           Y           Z
 ---------------------------------------------------------------------
      1          6           0        1.036218   -0.618772   -0.111759
      2          6           0       -1.187228   -0.114815    0.076159
      3          6           0        1.071801    0.834505    0.192342
      4          8           0       -0.334665   -1.132430    0.008041
      5          8           0       -0.787986    1.021176   -0.228337
      6          1           0        1.501615    1.510142   -0.521632
      7          1           0        1.078485    1.143058    1.223327
      8          1           0       -2.091530   -0.315994    0.654454
      9          1           0        1.363812   -0.830397   -1.133154
     10          1           0        1.604079   -1.222285    0.598924
 ---------------------------------------------------------------------
                    Distance matrix (angstroms):
                    1          2          3          4          5
     1  C    0.000000
     2  C    2.287575   0.000000
     3  C    1.485179   2.453145   0.000000
     4  O    1.468849   1.329302   2.425066   0.000000
     5  O    2.455757   1.242009   1.915887   2.213457   0.000000
     6  H    2.217401   3.198080   1.072839   3.261237   2.359530
     7  H    2.210947   2.834024   1.076188   2.941387   2.367678
     8  H    3.234434   1.092090   3.397625   2.042301   2.065568
     9  H    1.093321   2.912439   2.148048   2.068423   2.979472
    10  H    1.091680   3.048142   2.163103   2.028779   3.382226
                    6          7          8          9         10
     6  H    0.000000
     7  H    1.832668   0.000000
     8  H    4.198648   3.535738   0.000000
     9  H    2.423029   3.086898   3.924225   0.000000
    10  H    2.955047   2.502194   3.805519   1.792038   0.000000
 Stoichiometry    C3H5O2(2)
 Framework group  C1[X(C3H5O2)]
 Deg. of freedom    24
 Full point group                 C1      NOp   1
 Largest Abelian subgroup         C1      NOp   1
 Largest concise Abelian subgroup C1      NOp   1
                         Standard orientation:                         
 ---------------------------------------------------------------------
 Center     Atomic      Atomic             Coordinates (Angstroms)
 Number     Number       Type             X           Y           Z
 ---------------------------------------------------------------------
      1          6           0        1.036218   -0.618772   -0.111759
      2          6           0       -1.187228   -0.114815    0.076159
      3          6           0        1.071801    0.834505    0.192342
      4          8           0       -0.334665   -1.132430    0.008041
      5          8           0       -0.787986    1.021176   -0.228337
      6          1           0        1.501615    1.510142   -0.521632
      7          1           0        1.078485    1.143058    1.223327
      8          1           0       -2.091530   -0.315994    0.654454
      9          1           0        1.363812   -0.830397   -1.133154
     10          1           0        1.604079   -1.222285    0.598924
 ---------------------------------------------------------------------
 Rotational constants (GHZ):           8.2253129           6.9302653           4.0848294
 Leave Link  202 at Thu Jul  9 07:41:42 2026, MaxMem=   268435456 cpu:               0.0 elap:               0.0
 (Enter /sw/isaac/applications/gaussian/16C01/rhel8_cascadelake_binary_x86_64_avx2/g16/l301.exe)
 Standard basis: STO-3G (5D, 7F)
 Ernie: Thresh=  0.10000D-02 Tol=  0.10000D-05 Strict=F.
 There are    30 symmetry adapted cartesian basis functions of A   symmetry.
 There are    30 symmetry adapted basis functions of A   symmetry.
    30 basis functions,    90 primitive gaussians,    30 cartesian basis functions
    20 alpha electrons       19 beta electrons
       nuclear repulsion energy       180.9148443718 Hartrees.
 IExCor=    0 DFT=F Ex=HF Corr=None ExCW=0 ScaHFX=  1.000000
 ScaDFX=  1.000000  1.000000  1.000000  1.000000 ScalE2=  1.000000  1.000000
 IRadAn=      5 IRanWt=     -1 IRanGd=            0 ICorTp=0 IEmpDi=  4
 NAtoms=   10 NActive=   10 NUniq=   10 SFac= 1.00D+00 NAtFMM=   60 NAOKFM=F Big=F
 Integral buffers will be    131072 words long.
 Raffenetti 2 integral format.
 Two-electron integral symmetry is turned on.
 Leave Link  301 at Thu Jul  9 07:41:42 2026, MaxMem=   268435456 cpu:               0.0 elap:               0.0
 (Enter /sw/isaac/applications/gaussian/16C01/rhel8_cascadelake_binary_x86_64_avx2/g16/l402.exe)
 External calculation of energy, first and second derivatives.
 Running external command "/lustre/isaac24/scratch/usuresh3/xtb-gaussian/xtb-g R"
         input file       "/lustre/isaac24/scratch/usuresh3/paper/berny_results/migration/Gau-1283091.EIn"
         output file      "/lustre/isaac24/scratch/usuresh3/paper/berny_results/migration/Gau-1283091.EOu"
         message file     "/lustre/isaac24/scratch/usuresh3/paper/berny_results/migration/Gau-1283091.EMs"
         fchk file        "/lustre/isaac24/scratch/usuresh3/paper/berny_results/migration/Gau-1283091.EFC"
         mat. el file     "/lustre/isaac24/scratch/usuresh3/paper/berny_results/migration/Gau-1283091.EUF"

 ExternalExternalExternalExternalExternalExternalExternalExternalExternalExternal
 Output from external command:
 "/lustre/isaac24/scratch/usuresh3/xtb-gaussian/xtb-g R /lustre/isaac24/scratch/usuresh3/paper/berny_results/migration/Gau-1283091.EIn /lustre/isaac24/scratch/usuresh3/paper/berny_results/migration/Gau-1283091.EOu /lustre/isaac24/scratch/usuresh3/paper/berny_results/migration/Gau-1283091.EMs /lustre/isaac24/scratch/usuresh3/paper/berny_results/migration/Gau-1283091.EFC /lustre/isaac24/scratch/usuresh3/paper/berny_results/migration/Gau-1283091.EUF"
 Note: The following floating-point exceptions are signalling: IEEE_UNDERFLOW_FLAG IEEE_DENORMAL
 normal termination of xtb
  
 ------- xtb command was ---------
 ?> xtb ./Gau-1283091.EIn  --hess --charge 0  >/dev/null 2>Gau-1283091.EMs
 ---------------------------------
 WARNING: Gaussian multiplicity S=2 is not singlet.
          This is not not explicitly supported. Results are likely wrong without
          an appropriate --uhf argument xtb command line!
              Control returned to Gaussian.
 ~~~~~~~~~~~~~~~~~~~~~~~~~~~~~~~~~~~~~~~~~~~~~~~~~~~~~~~~~~~~~~~~~~~~~~~~~
 ExternalExternalExternalExternalExternalExternalExternalExternalExternalExternal

 Recovered energy= -16.9995166991     dipole=      0.550243019551     -0.337994662481      0.300121482304
 Energy=    -16.9995167     NIter=   0.
 Dipole moment=       0.550243      -0.337995       0.300121
 Leave Link  402 at Thu Jul  9 07:41:42 2026, MaxMem=   268435456 cpu:               0.2 elap:               0.1
 (Enter /sw/isaac/applications/gaussian/16C01/rhel8_cascadelake_binary_x86_64_avx2/g16/l601.exe)
 Leave Link  601 at Thu Jul  9 07:41:42 2026, MaxMem=   268435456 cpu:               0.0 elap:               0.0
 (Enter /sw/isaac/applications/gaussian/16C01/rhel8_cascadelake_binary_x86_64_avx2/g16/l716.exe)
 Dipole        = 5.50243020D-01-3.37994662D-01 3.00121482D-01
 ***** Axes restored to original set *****
 -------------------------------------------------------------------
 Center     Atomic                   Forces (Hartrees/Bohr)
 Number     Number              X              Y              Z
 -------------------------------------------------------------------
      1        6          -0.000018011   -0.000018055   -0.000015815
      2        6          -0.000035571   -0.000060958   -0.000011586
      3        6          -0.000027935    0.000017399   -0.000028220
      4        8           0.000035220    0.000010648    0.000023747
      5        8           0.000017580    0.000058963    0.000029803
      6        1           0.000024212   -0.000011386    0.000002938
      7        1          -0.000008105   -0.000001809   -0.000003327
      8        1           0.000002353    0.000005844   -0.000005105
      9        1           0.000010337    0.000004212    0.000008084
     10        1          -0.000000081   -0.000004858   -0.000000520
 -------------------------------------------------------------------
 Cartesian Forces:  Max     0.000060958 RMS     0.000022782
 Force constants in Cartesian coordinates: 
                1             2             3             4             5 
      1  0.326979D+00
      2 -0.111321D+00  0.455358D+00
      3 -0.521072D-02 -0.931016D-02  0.523433D+00
      4 -0.715253D-01 -0.716196D-02  0.830711D-03  0.504957D+00
      5  0.342200D-01  0.157120D-01  0.685241D-02  0.390169D-01  0.656084D+00
      6  0.400825D-02  0.303597D-03  0.147071D-02 -0.156802D+00 -0.119730D+00
      7 -0.533079D-01 -0.145986D-01  0.115720D-01 -0.970271D-01 -0.832895D-01
      8  0.223704D-01 -0.196621D+00 -0.336798D-01  0.140409D-02 -0.715475D-02
      9  0.104238D-01 -0.318352D-01 -0.766597D-01 -0.476119D-02 -0.173586D-01
     10 -0.673656D-01 -0.495013D-02  0.186967D-01 -0.118069D+00  0.124602D+00
     11 -0.325294D-01 -0.889499D-01  0.147503D-02  0.795636D-01 -0.218767D+00
     12  0.148156D-01  0.511198D-02 -0.517052D-01  0.141046D-01 -0.101092D-01
     13 -0.161614D-02  0.384469D-01 -0.115451D-01 -0.375272D-01 -0.772474D-01
     14  0.851889D-02 -0.105987D-02  0.124104D-02 -0.882093D-01 -0.409464D+00
     15  0.311522D-02  0.459948D-03 -0.183743D-02  0.414093D-01  0.116909D+00
     16  0.490761D-02  0.351716D-02  0.236461D-02 -0.201695D-02 -0.361863D-02
     17 -0.106776D-01 -0.170307D-01  0.150622D-01  0.215112D-02  0.829125D-04
     18 -0.471769D-03 -0.177554D-02  0.363012D-02 -0.187317D-02 -0.630579D-03
     19  0.338564D-03  0.234748D-02 -0.152802D-02 -0.267446D-03 -0.692722D-03
     20  0.823845D-03 -0.990521D-02 -0.266439D-01  0.496943D-03 -0.567846D-05
     21  0.509157D-03 -0.392158D-02 -0.757647D-02  0.159595D-02 -0.451950D-03
     22  0.654773D-03  0.416188D-02  0.401964D-02 -0.174627D+00 -0.281267D-01
     23  0.519425D-03 -0.290242D-02 -0.144544D-02 -0.287004D-01 -0.337537D-01
     24 -0.422801D-02 -0.101447D-02  0.230671D-02  0.105609D+00  0.251556D-01
     25 -0.516279D-01  0.181437D-01  0.551089D-01 -0.179399D-02 -0.302081D-02
     26  0.160111D-01 -0.492392D-01 -0.390466D-01  0.656611D-03 -0.150509D-02
     27  0.559899D-01 -0.411085D-01 -0.245756D+00 -0.869562D-03  0.480966D-03
     28 -0.874370D-01  0.714150D-01 -0.743088D-01 -0.210242D-02 -0.184300D-02
     29  0.720647D-01 -0.105362D+00  0.854952D-01  0.782282D-03 -0.122884D-02
     30 -0.789514D-01  0.830899D-01 -0.147305D+00  0.757304D-03 -0.111723D-02
                6             7             8             9            10 
      6  0.189691D+00
      7  0.847817D-02  0.107110D+00
      8 -0.495859D-02  0.128823D+00  0.492622D+00
      9  0.972250D-02 -0.959272D-01 -0.398086D-02  0.561100D+00
     10  0.145666D-01  0.200039D-01 -0.494355D-01 -0.975983D-03  0.312900D+00
     11  0.303770D-02 -0.504646D-01 -0.199539D-01 -0.353337D-02 -0.726789D-01
     12 -0.373228D-01 -0.151236D-01 -0.612017D-03 -0.237981D-02 -0.466217D-01
     13  0.412456D-01  0.871029D-01 -0.102517D-01  0.586336D-02 -0.417335D-01
     14  0.104080D+00  0.736843D-01 -0.219664D-01  0.207398D-01 -0.174392D-02
     15 -0.770490D-01 -0.115466D-01  0.505374D-02 -0.295910D-01 -0.334780D-02
     16 -0.108840D-02 -0.600411D-01 -0.792133D-01  0.813020D-01 -0.702662D-02
     17  0.336328D-03 -0.739311D-01 -0.148203D+00  0.116814D+00 -0.182825D-02
     18 -0.209496D-03  0.805116D-01  0.118061D+00 -0.170270D+00 -0.192552D-02
     19  0.105997D-03 -0.177712D-01 -0.922700D-02  0.184525D-02  0.230008D-04
     20 -0.273091D-04 -0.529736D-02 -0.616069D-01 -0.708644D-01 -0.499202D-03
     21 -0.179193D-03  0.695110D-02 -0.741556D-01 -0.294295D+00 -0.119420D-02
     22  0.897061D-01  0.959130D-02 -0.100167D-02  0.324666D-02 -0.334481D-01
     23  0.168307D-01  0.590873D-02 -0.474875D-03  0.315065D-02  0.230308D-01
     24 -0.849011D-01  0.135450D-01 -0.375396D-03  0.781593D-02  0.107048D-01
     25  0.225293D-02  0.128756D-02 -0.137938D-02  0.780768D-03 -0.281084D-01
     26  0.379734D-03  0.549850D-02 -0.120353D-01 -0.292345D-01 -0.835346D-02
     27 -0.110409D-02  0.572166D-03 -0.652548D-02 -0.963730D-02  0.128325D-01
     28 -0.247280D-02  0.305150D-02 -0.208869D-02 -0.179743D-02 -0.371754D-01
     29 -0.252142D-03  0.136669D-01 -0.246055D-01  0.161024D-01 -0.814324D-02
     30 -0.118338D-03  0.967305D-03  0.117334D-02  0.419446D-02 -0.273544D-02
               11            12            13            14            15 
     11  0.412707D+00
     12 -0.785341D-02  0.676064D-01
     13  0.519537D-01  0.721976D-02  0.323546D-01
     14 -0.916629D-01  0.174462D-01  0.365095D-01  0.549445D+00
     15  0.130911D-01  0.232445D-01 -0.357931D-01 -0.156129D+00  0.951991D-01
     16  0.162367D-02  0.995979D-04 -0.720069D-02 -0.666067D-02  0.588765D-02
     17 -0.358927D-02  0.101848D-03 -0.135010D-02  0.140655D-04 -0.113190D-02
     18 -0.239534D-02  0.577230D-04  0.254290D-03 -0.433484D-03  0.151897D-02
     19 -0.108961D-02  0.603141D-03 -0.750930D-02 -0.220917D-04 -0.108762D-01
     20  0.360112D-03  0.342171D-03 -0.659078D-04 -0.344906D-04  0.820057D-03
     21  0.926492D-03  0.384785D-03 -0.452799D-02 -0.382770D-03 -0.124007D-02
     22  0.107026D-01  0.117983D-01 -0.217825D-01 -0.202868D-01  0.110064D-01
     23  0.108838D-02 -0.872093D-02 -0.371269D-01 -0.231687D-01  0.201909D-01
     24 -0.662065D-02 -0.318590D-02 -0.590718D-02  0.135071D-01 -0.108417D-01
     25  0.342333D-04  0.294137D-01  0.778057D-03 -0.141624D-03  0.416326D-04
     26  0.323296D-02  0.745346D-02 -0.503941D-04  0.904347D-03  0.559583D-03
     27  0.273288D-02 -0.399711D-03  0.185175D-03  0.897341D-03  0.267495D-03
     28  0.128847D-01 -0.163093D-01 -0.286627D-02 -0.164841D-02  0.103571D-03
     29  0.553485D-02 -0.316010D-02 -0.817781D-03 -0.300682D-02  0.176671D-03
     30 -0.860407D-03  0.370002D-02  0.300517D-02 -0.966536D-03  0.329128D-03
               16            17            18            19            20 
     16  0.703585D-01
     17  0.838368D-01  0.166408D+00
     18 -0.875923D-01 -0.127127D+00  0.183123D+00
     19  0.144223D-02  0.243980D-02  0.114185D-01  0.221718D-01
     20 -0.391341D-03  0.472600D-02  0.161587D-01  0.554420D-02  0.705847D-01
     21  0.455873D-03 -0.443489D-02 -0.195427D-01 -0.355135D-02  0.831925D-01
     22 -0.299515D-03  0.139843D-04 -0.318414D-04  0.140437D-03 -0.976408D-04
     23 -0.300320D-03  0.415710D-04 -0.174413D-03  0.186563D-03 -0.592183D-04
     24 -0.397269D-03 -0.316535D-03  0.265805D-03  0.521935D-03 -0.256807D-03
     25 -0.203672D-03 -0.459995D-03 -0.501168D-03  0.149020D-02 -0.430145D-03
     26  0.729947D-04  0.816856D-03 -0.121614D-02  0.899723D-03 -0.538438D-02
     27 -0.565684D-03  0.112359D-02  0.116155D-02  0.944182D-03 -0.178370D-02
     28  0.801509D-04 -0.194704D-03  0.211353D-03 -0.582443D-04 -0.833882D-04
     29  0.113360D-02 -0.326692D-02 -0.467138D-03 -0.386333D-03  0.132500D-02
     30 -0.466089D-03 -0.428049D-03  0.264769D-03  0.516586D-03 -0.937329D-03
               21            22            23            24            25 
     21  0.320606D+00
     22 -0.112986D-03  0.220860D+00
     23  0.823888D-04  0.353198D-01  0.590181D-01
     24 -0.212754D-03 -0.119857D+00 -0.297428D-01  0.886246D-01
     25 -0.109808D-04 -0.114297D-02  0.618748D-03 -0.688759D-03  0.745992D-01
     26 -0.141776D-02 -0.438365D-03  0.674994D-04 -0.243233D-03 -0.115187D-01
     27  0.990968D-03  0.839270D-04 -0.566067D-04  0.124637D-03 -0.727303D-01
     28 -0.114574D-03  0.543193D-04  0.543463D-03  0.697612D-03  0.472191D-02
     29  0.563113D-03 -0.247147D-03  0.143410D-03 -0.928021D-04 -0.184604D-02
     30  0.106476D-02  0.140499D-03 -0.114479D-03  0.380940D-05 -0.136667D-01
               26            27            28            29            30 
     26  0.598568D-01
     27  0.467245D-01  0.278449D+00
     28 -0.277799D-02  0.355764D-02  0.121731D+00
     29  0.328552D-02 -0.248495D-02 -0.762070D-01  0.127181D+00
     30  0.160410D-01 -0.240966D-01  0.904328D-01 -0.958802D-01  0.161963D+00
 FormGI is forming the generalized inverse of G from B-inverse, IUseBI=4.
 Force constants in internal coordinates: 
                1             2             3             4             5 
      1  0.333876D+00
      2  0.744557D-01  0.238634D+00
      3  0.117262D-01  0.201354D-01  0.310909D+00
      4  0.116192D-01  0.141393D-01  0.862869D-02  0.314536D+00
      5 -0.160908D-01  0.620699D-01 -0.132210D-02 -0.660484D-03  0.480949D+00
      6 -0.170556D-01  0.789356D-01 -0.857621D-03  0.413079D-03  0.114693D+00
      7  0.649326D-03 -0.440857D-02  0.903435D-04 -0.153091D-04  0.283964D-01
      8  0.993274D-02  0.573579D-02 -0.108796D-05  0.182772D-03 -0.113313D-02
      9  0.112516D-01  0.371518D-02  0.109008D-03 -0.853125D-04  0.118826D-02
     10  0.942307D-01  0.388122D-01 -0.495211D-02 -0.116009D-01  0.164016D-02
     11  0.239592D-02 -0.265533D-01  0.379380D-02 -0.610848D-02  0.494349D-02
     12 -0.928455D-02 -0.221025D-01 -0.781830D-02  0.473170D-02 -0.206038D-02
     13 -0.414787D-01  0.107106D-01  0.460194D-02  0.208673D-03 -0.302079D-02
     14 -0.443696D-01  0.723203D-02 -0.142137D-02  0.802930D-02  0.555641D-03
     15 -0.526194D-02 -0.275570D-02  0.601745D-02  0.531679D-02 -0.247805D-02
     16  0.378199D-02 -0.768411D-01 -0.105471D-02 -0.118121D-02  0.115944D+00
     17 -0.191125D-02  0.396855D-01  0.859953D-03  0.563936D-03 -0.310186D-01
     18 -0.741663D-03  0.287546D-01  0.285204D-03  0.421652D-03 -0.789493D-01
     19  0.151443D-01 -0.374971D-03 -0.402742D-02  0.314362D-02  0.277448D-03
     20  0.127109D-01 -0.348171D-02  0.485683D-02 -0.296276D-02 -0.100595D-02
     21 -0.236344D-01 -0.207176D-02 -0.575323D-03 -0.111176D-03  0.755156D-04
     22  0.689436D-01  0.159913D-01  0.188053D-02 -0.118359D-02  0.168430D+00
     23 -0.259276D-02 -0.111856D-01 -0.494906D-02  0.601364D-02  0.849614D-03
     24 -0.646461D-02  0.344727D-02 -0.542259D-02  0.589043D-02  0.238436D-02
     25  0.930324D-02  0.108834D-01 -0.913869D-05 -0.534400D-02  0.132619D-02
     26  0.543140D-02  0.255163D-01 -0.482669D-03 -0.546721D-02  0.286094D-02
     27 -0.326932D-02 -0.320775D-01  0.495521D-02  0.648056D-03  0.353534D-03
     28 -0.714117D-02 -0.174446D-01  0.448168D-02  0.524847D-03  0.188828D-02
     29  0.135028D-01 -0.493202D-02  0.547364D-02 -0.578573D-02  0.122660D-01
     30 -0.186407D-01 -0.200854D-02  0.884322D-03  0.829779D-02  0.717786D-02
     31  0.252554D-01 -0.676736D-02 -0.720210D-02 -0.146697D-02  0.109996D-01
     32  0.962541D-02 -0.233891D-01  0.396467D-03 -0.283565D-03  0.275022D-01
     33  0.576224D-02  0.886165D-03  0.126106D-04  0.330493D-03  0.207005D-01
     34 -0.417281D-02  0.274300D-01 -0.490414D-03  0.691579D-03 -0.202945D-01
                6             7             8             9            10 
      6  0.565841D+00
      7  0.373545D-01  0.299975D+00
      8 -0.357996D-02 -0.213583D-03  0.353966D+00
      9 -0.150832D-02 -0.448422D-04  0.764984D-02  0.345720D+00
     10  0.164529D+00 -0.374729D-02  0.141458D-01  0.719486D-02  0.222726D+00
     11 -0.106391D-01  0.923590D-03 -0.475029D-02  0.327215D-02 -0.517268D-01
     12 -0.573917D-01  0.227280D-03 -0.115282D-02 -0.489973D-02 -0.457323D-01
     13 -0.526496D-01  0.165172D-02 -0.325527D-02 -0.389228D-02 -0.741869D-01
     14 -0.545386D-01  0.129236D-02 -0.587985D-02 -0.180957D-02 -0.752484D-01
     15  0.104467D-01 -0.304503D-03  0.981671D-03 -0.117139D-03  0.248189D-01
     16  0.218786D+00 -0.214957D-01  0.439812D-02  0.583671D-02 -0.133923D+00
     17 -0.138116D+00  0.121732D-01 -0.202828D-02 -0.276772D-02  0.658417D-01
     18 -0.595168D-01  0.109025D-01 -0.198066D-02 -0.242538D-02  0.527102D-01
     19  0.255938D-02 -0.630968D-04  0.665210D-02 -0.151696D-01 -0.277937D-03
     20  0.682772D-04 -0.412569D-04 -0.144584D-01  0.835543D-02 -0.106334D-01
     21 -0.353517D-03  0.208072D-04  0.811879D-02  0.748666D-02 -0.268048D-02
     22  0.359581D+00 -0.198686D-02  0.161046D-01  0.152447D-01 -0.655847D-01
     23 -0.517320D-02 -0.412535D-03  0.358639D-03  0.140382D-02 -0.197508D-01
     24 -0.104794D-01 -0.219482D-03 -0.245072D-02 -0.219468D-02  0.132658D-01
     25  0.308823D-01 -0.226797D-03  0.258550D-02  0.339051D-02  0.136775D-02
     26  0.255762D-01 -0.337436D-04 -0.223865D-03 -0.207987D-03  0.343843D-01
     27 -0.950122D-02  0.294435D-03 -0.871600D-03  0.197899D-02 -0.437005D-01
     28 -0.148074D-01  0.487488D-03 -0.368096D-02 -0.161951D-02 -0.106839D-01
     29  0.629243D-01  0.906859D-03 -0.497094D-03  0.499372D-02 -0.684556D-02
     30  0.124978D-01  0.944400D-03 -0.960149D-03 -0.765877D-03 -0.278911D-01
     31  0.480926D-01 -0.648974D-05  0.201219D-02  0.184912D-02  0.101457D-01
     32  0.857359D-01  0.368886D-02  0.900146D-03  0.293270D-02 -0.231826D-01
     33  0.227997D-01 -0.403641D-02 -0.106298D-03  0.110914D-02  0.213032D-01
     34 -0.626387D-01 -0.798317D-02 -0.125371D-02 -0.215010D-02  0.512832D-01
               11            12            13            14            15 
     11  0.770714D-01
     12 -0.144854D-01  0.710566D-01
     13 -0.208772D-01  0.234993D-01  0.717062D-01
     14  0.253610D-01 -0.179527D-01  0.101708D-01  0.674785D-01
     15 -0.214306D-01 -0.195527D-01 -0.572451D-02 -0.694992D-02  0.311807D-01
     16  0.245692D-01  0.335716D-01  0.396916D-01  0.461551D-01 -0.105346D-01
     17 -0.127205D-01 -0.165953D-01 -0.185794D-01 -0.226007D-01  0.501271D-02
     18 -0.746512D-02 -0.148347D-01 -0.169787D-01 -0.177575D-01  0.435545D-02
     19 -0.232080D-02  0.414069D-02  0.531924D-03 -0.170617D-02 -0.490420D-03
     20  0.754138D-02  0.180454D-03  0.453248D-03  0.416461D-02 -0.220906D-02
     21 -0.290275D-02  0.302960D-03  0.269041D-02  0.161110D-02  0.143849D-02
     22 -0.202426D-03  0.188562D-01  0.248986D-01  0.332395D-01 -0.945375D-02
     23  0.598963D-02  0.386177D-02 -0.121296D-01  0.234128D-01 -0.165465D-02
     24  0.121603D-02 -0.719586D-02 -0.215634D-01  0.133107D-01  0.970976D-03
     25 -0.487571D-02 -0.625949D-02  0.153114D-01  0.265373D-02 -0.619620D-02
     26 -0.964930D-02 -0.173171D-01  0.587761D-02 -0.744832D-02 -0.357057D-02
     27  0.172748D-01  0.123183D-01  0.937917D-02 -0.451689D-03  0.286472D-02
     28  0.125012D-01  0.126071D-02 -0.546519D-04 -0.105537D-01  0.549035D-02
     29  0.435882D-01 -0.403428D-01 -0.108146D-01  0.146541D-01 -0.143967D-02
     30 -0.689171D-02 -0.106386D-01  0.132354D-01  0.214623D-01  0.136860D-01
     31  0.145043D-01  0.965705D-02 -0.154293D-01 -0.596784D-02 -0.158473D-01
     32  0.289148D-01 -0.188831D-01  0.183514D-03  0.146960D-01 -0.246231D-02
     33  0.148020D-01 -0.236503D-01 -0.112678D-01 -0.248722D-02  0.849667D-03
     34 -0.154421D-01 -0.610540D-02 -0.137086D-01 -0.196550D-01  0.389624D-02
               16            17            18            19            20 
     16  0.157915D+00
     17 -0.778629D-01  0.924232D-01
     18 -0.802181D-01 -0.151150D-01  0.968799D-01
     19 -0.101329D-02  0.439532D-03  0.683082D-03  0.770157D-01
     20 -0.262763D-02  0.136874D-02  0.745193D-03 -0.381540D-01  0.779645D-01
     21 -0.117560D-03  0.126038D-03 -0.109863D-03 -0.337917D-01 -0.341645D-01
     22 -0.120254D+00  0.708392D-01  0.286619D-01 -0.112542D-01 -0.744297D-02
     23  0.294868D-03 -0.355692D-03  0.379417D-03  0.277396D-02  0.114615D-02
     24  0.925970D-02 -0.498672D-02 -0.272485D-02 -0.223388D-03 -0.363194D-02
     25 -0.227834D-01  0.117509D-01  0.917881D-02  0.176344D-02 -0.474761D-03
     26 -0.138186D-01  0.711985D-02  0.607455D-02 -0.123390D-02 -0.525285D-02
     27  0.978059D-02 -0.507708D-02 -0.285801D-02  0.252179D-02  0.281752D-02
     28  0.187454D-01 -0.970812D-02 -0.596227D-02 -0.475555D-03 -0.196057D-02
     29 -0.113329D-01  0.522898D-02  0.833110D-02 -0.749031D-03 -0.901833D-03
     30  0.123353D-01 -0.620985D-02 -0.282021D-02  0.190469D-02 -0.413994D-02
     31 -0.138125D-01  0.639448D-02  0.762423D-02  0.301411D-02 -0.375193D-02
     32  0.132176D-01 -0.158833D-01  0.936862D-02  0.145557D-02 -0.395851D-02
     33  0.291070D-01 -0.123916D-01 -0.132240D-01  0.938927D-03 -0.227995D-02
     34  0.115253D-01 -0.130299D-01 -0.164237D-02 -0.488880D-03  0.182661D-02
               21            22            23            24            25 
     21  0.608315D-01
     22  0.559292D-03  0.160920D+00
     23 -0.125937D-03 -0.189524D-01  0.218096D-01
     24  0.969811D-03  0.239918D-01  0.128305D-01  0.194419D-01
     25 -0.392725D-03 -0.312746D-01 -0.265140D-02 -0.467316D-02  0.143416D-01
     26  0.703023D-03  0.116696D-01 -0.116305D-01  0.193826D-02  0.123198D-01
     27 -0.568314D-03 -0.291429D-01  0.306825D-02 -0.812100D-02 -0.298778D-02
     28  0.527434D-03  0.138013D-01 -0.591086D-02 -0.150958D-02 -0.500954D-02
     29 -0.173666D-02 -0.262667D-01 -0.369669D-02  0.480491D-02  0.625271D-02
     30  0.168350D-02 -0.320023D-02  0.813214D-02  0.901825D-02  0.183364D-02
     31 -0.181966D-02 -0.183607D-01  0.441193D-02  0.109774D-01  0.109910D-02
     32 -0.606567D-03 -0.163742D-01 -0.146419D-02  0.609423D-02  0.202272D-02
     33 -0.227620D-03  0.514948D-01 -0.266160D-02  0.113203D-02  0.683557D-02
     34  0.378340D-03  0.712534D-01 -0.119469D-02 -0.537588D-02  0.562932D-02
               26            27            28            29            30 
     26  0.258886D-01
     27 -0.141770D-01  0.247627D-01
     28 -0.608264D-03  0.135734D-01  0.179747D-01
     29  0.147543D-01  0.752186D-02  0.160235D-01  0.614924D-01
     30  0.271975D-02  0.621253D-02  0.709863D-02  0.192209D-01  0.356576D-01
     31  0.766459D-02 -0.793271D-03  0.577222D-02  0.187165D-01  0.476485D-02
     32  0.958113D-02  0.712237D-02  0.146808D-01  0.528445D-01  0.311145D-01
     33  0.106292D-01  0.112636D-02  0.491999D-02  0.433626D-01  0.199290D-01
     34  0.144813D-02 -0.654019D-02 -0.107214D-01 -0.947658D-02 -0.121301D-01
               31            32            33            34 
     31  0.319201D-01
     32  0.270729D-01  0.891874D-01
     33  0.248972D-01  0.638548D-01  0.539408D-01
     34 -0.168665D-02 -0.237513D-01 -0.120882D-01  0.145130D-01
 Leave Link  716 at Thu Jul  9 07:41:42 2026, MaxMem=   268435456 cpu:               0.0 elap:               0.0
 (Enter /sw/isaac/applications/gaussian/16C01/rhel8_cascadelake_binary_x86_64_avx2/g16/l103.exe)

 GradGradGradGradGradGradGradGradGradGradGradGradGradGradGradGradGradGrad
 Berny optimization.
 Red2BG is reusing G-inverse.
 Internal  Forces:  Max     0.000057436 RMS     0.000022082
 Search for a saddle point.
 Step number   1 out of a maximum of   44
 All quantities printed in internal units (Hartrees-Bohrs-Radians)
 Swapping is turned off.
 Second derivative matrix not updated -- analytic derivatives used.
 ITU=  0
     Eigenvalues ---   -0.41379   0.00233   0.02076   0.02427   0.04321
     Eigenvalues ---    0.05201   0.06353   0.08151   0.09482   0.10131
     Eigenvalues ---    0.10546   0.11867   0.20191   0.23274   0.25681
     Eigenvalues ---    0.29798   0.30629   0.31702   0.33550   0.34549
     Eigenvalues ---    0.36077   0.43027   0.58284   0.95880
 Eigenvectors required to have negative eigenvalues:
                          A13       R6        A7        A1        D12
   1                    0.55064  -0.42848   0.39383   0.29474  -0.23155
                          A8        R5        R1        R2        A5
   1                   -0.21940  -0.13857  -0.13852   0.13021  -0.12521
 RFO step:  Lambda0=1.089015822D-09 Lambda=-8.17461487D-08.
 Linear search not attempted -- option 19 set.
 Iteration  1 RMS(Cart)=  0.00029265 RMS(Int)=  0.00000007
 Iteration  2 RMS(Cart)=  0.00000007 RMS(Int)=  0.00000001
 ITry= 1 IFail=0 DXMaxC= 1.14D-03 DCOld= 1.00D+10 DXMaxT= 3.00D-01 DXLimC= 3.00D+00 Rises=F
 Variable       Old X    -DE/DX   Delta X   Delta X   Delta X     New X
                                 (Linear)    (Quad)   (Total)
    R1        2.80658  -0.00000   0.00000   0.00004   0.00004   2.80662
    R2        2.77572  -0.00002   0.00000  -0.00024  -0.00024   2.77548
    R3        2.06608  -0.00001   0.00000  -0.00001  -0.00001   2.06607
    R4        2.06298   0.00000   0.00000   0.00003   0.00003   2.06301
    R5        2.51202   0.00001   0.00000   0.00001   0.00001   2.51202
    R6        2.34706   0.00005   0.00000   0.00003   0.00003   2.34709
    R7        2.06375  -0.00001   0.00000  -0.00002  -0.00002   2.06373
    R8        2.02737   0.00000   0.00000  -0.00001  -0.00001   2.02737
    R9        2.03370  -0.00000   0.00000  -0.00001  -0.00001   2.03369
    A1        1.92607  -0.00000   0.00000   0.00002   0.00002   1.92609
    A2        1.95359  -0.00003   0.00000  -0.00007  -0.00007   1.95352
    A3        1.97708   0.00002   0.00000  -0.00001  -0.00001   1.97707
    A4        1.86309   0.00002   0.00000   0.00019   0.00019   1.86329
    A5        1.81219  -0.00001   0.00000  -0.00003  -0.00003   1.81217
    A6        1.92336  -0.00000   0.00000  -0.00009  -0.00009   1.92327
    A7        2.07311   0.00001   0.00000   0.00011   0.00011   2.07322
    A8        2.00115   0.00000   0.00000  -0.00003  -0.00003   2.00112
    A9        2.17061  -0.00002   0.00000  -0.00008  -0.00008   2.17052
   A10        2.08239  -0.00002   0.00000  -0.00016  -0.00016   2.08224
   A11        2.06787   0.00000   0.00000  -0.00002  -0.00002   2.06785
   A12        2.04261   0.00001   0.00000   0.00002   0.00002   2.04263
   A13        1.91246   0.00003   0.00000   0.00013   0.00013   1.91260
    D1       -2.19549  -0.00002   0.00000  -0.00082  -0.00082  -2.19631
    D2        1.40261  -0.00001   0.00000  -0.00045  -0.00045   1.40216
    D3       -0.12322  -0.00001   0.00000  -0.00061  -0.00061  -0.12383
    D4       -2.80831   0.00000   0.00000  -0.00024  -0.00024  -2.80854
    D5        2.06442  -0.00002   0.00000  -0.00079  -0.00079   2.06362
    D6       -0.62067  -0.00000   0.00000  -0.00042  -0.00042  -0.62109
    D7        0.22668  -0.00005   0.00000   0.00028   0.00028   0.22696
    D8       -1.89999  -0.00003   0.00000   0.00023   0.00023  -1.89976
    D9        2.35072  -0.00003   0.00000   0.00026   0.00026   2.35098
   D10        0.24489  -0.00006   0.00000  -0.00050  -0.00050   0.24439
   D11       -2.61585  -0.00003   0.00000  -0.00047  -0.00047  -2.61632
   D12       -2.83147   0.00002   0.00000   0.00001   0.00001  -2.83146
         Item               Value     Threshold  Converged?
 Maximum Force            0.000057     0.000450     YES
 RMS     Force            0.000022     0.000300     YES
 Maximum Displacement     0.001141     0.001800     YES
 RMS     Displacement     0.000293     0.001200     YES
 Predicted change in Energy=-4.032857D-08
 Optimization completed.
    -- Stationary point found.
                           ----------------------------
                           !   Optimized Parameters   !
                           ! (Angstroms and Degrees)  !
 --------------------------                            --------------------------
 ! Name  Definition              Value          Derivative Info.                !
 --------------------------------------------------------------------------------
 ! R1    R(1,3)                  1.4852         -DE/DX =    0.0                 !
 ! R2    R(1,4)                  1.4688         -DE/DX =    0.0                 !
 ! R3    R(1,9)                  1.0933         -DE/DX =    0.0                 !
 ! R4    R(1,10)                 1.0917         -DE/DX =    0.0                 !
 ! R5    R(2,4)                  1.3293         -DE/DX =    0.0                 !
 ! R6    R(2,5)                  1.242          -DE/DX =    0.0001              !
 ! R7    R(2,8)                  1.0921         -DE/DX =    0.0                 !
 ! R8    R(3,6)                  1.0728         -DE/DX =    0.0                 !
 ! R9    R(3,7)                  1.0762         -DE/DX =    0.0                 !
 ! A1    A(3,1,4)              110.3559         -DE/DX =    0.0                 !
 ! A2    A(3,1,9)              111.9324         -DE/DX =    0.0                 !
 ! A3    A(3,1,10)             113.2782         -DE/DX =    0.0                 !
 ! A4    A(4,1,9)              106.7475         -DE/DX =    0.0                 !
 ! A5    A(4,1,10)             103.8309         -DE/DX =    0.0                 !
 ! A6    A(9,1,10)             110.2005         -DE/DX =    0.0                 !
 ! A7    A(4,2,5)              118.7803         -DE/DX =    0.0                 !
 ! A8    A(4,2,8)              114.6574         -DE/DX =    0.0                 !
 ! A9    A(5,2,8)              124.3666         -DE/DX =    0.0                 !
 ! A10   A(1,3,6)              119.3124         -DE/DX =    0.0                 !
 ! A11   A(1,3,7)              118.4803         -DE/DX =    0.0                 !
 ! A12   A(6,3,7)              117.0327         -DE/DX =    0.0                 !
 ! A13   A(1,4,2)              109.5762         -DE/DX =    0.0                 !
 ! D1    D(4,1,3,6)           -125.7926         -DE/DX =    0.0                 !
 ! D2    D(4,1,3,7)             80.3635         -DE/DX =    0.0                 !
 ! D3    D(9,1,3,6)             -7.0601         -DE/DX =    0.0                 !
 ! D4    D(9,1,3,7)           -160.9041         -DE/DX =    0.0                 !
 ! D5    D(10,1,3,6)           118.2823         -DE/DX =    0.0                 !
 ! D6    D(10,1,3,7)           -35.5616         -DE/DX =    0.0                 !
 ! D7    D(3,1,4,2)             12.9878         -DE/DX =    0.0                 !
 ! D8    D(9,1,4,2)           -108.8613         -DE/DX =    0.0                 !
 ! D9    D(10,1,4,2)           134.6863         -DE/DX =    0.0                 !
 ! D10   D(5,2,4,1)             14.0311         -DE/DX =   -0.0001              !
 ! D11   D(8,2,4,1)           -149.877          -DE/DX =    0.0                 !
 ! D12   D(4,2,5,8)           -162.2313         -DE/DX =    0.0                 !
 --------------------------------------------------------------------------------
 Largest change from initial coordinates is atom    6       0.000 Angstoms.
 GradGradGradGradGradGradGradGradGradGradGradGradGradGradGradGradGradGrad

 Leave Link  103 at Thu Jul  9 07:41:42 2026, MaxMem=   268435456 cpu:               0.0 elap:               0.0
 (Enter /sw/isaac/applications/gaussian/16C01/rhel8_cascadelake_binary_x86_64_avx2/g16/l202.exe)
                          Input orientation:                          
 ---------------------------------------------------------------------
 Center     Atomic      Atomic             Coordinates (Angstroms)
 Number     Number       Type             X           Y           Z
 ---------------------------------------------------------------------
      1          6           0        1.036218   -0.618772   -0.111759
      2          6           0       -1.187228   -0.114815    0.076159
      3          6           0        1.071801    0.834505    0.192342
      4          8           0       -0.334665   -1.132430    0.008041
      5          8           0       -0.787986    1.021176   -0.228337
      6          1           0        1.501615    1.510142   -0.521632
      7          1           0        1.078485    1.143058    1.223327
      8          1           0       -2.091530   -0.315994    0.654454
      9          1           0        1.363812   -0.830397   -1.133154
     10          1           0        1.604079   -1.222285    0.598924
 ---------------------------------------------------------------------
                    Distance matrix (angstroms):
                    1          2          3          4          5
     1  C    0.000000
     2  C    2.287575   0.000000
     3  C    1.485179   2.453145   0.000000
     4  O    1.468849   1.329302   2.425066   0.000000
     5  O    2.455757   1.242009   1.915887   2.213457   0.000000
     6  H    2.217401   3.198080   1.072839   3.261237   2.359530
     7  H    2.210947   2.834024   1.076188   2.941387   2.367678
     8  H    3.234434   1.092090   3.397625   2.042301   2.065568
     9  H    1.093321   2.912439   2.148048   2.068423   2.979472
    10  H    1.091680   3.048142   2.163103   2.028779   3.382226
                    6          7          8          9         10
     6  H    0.000000
     7  H    1.832668   0.000000
     8  H    4.198648   3.535738   0.000000
     9  H    2.423029   3.086898   3.924225   0.000000
    10  H    2.955047   2.502194   3.805519   1.792038   0.000000
 Stoichiometry    C3H5O2(2)
 Framework group  C1[X(C3H5O2)]
 Deg. of freedom    24
 Full point group                 C1      NOp   1
 RotChk:  IX=0 Diff= 2.40D-16
 Largest Abelian subgroup         C1      NOp   1
 Largest concise Abelian subgroup C1      NOp   1
                         Standard orientation:                         
 ---------------------------------------------------------------------
 Center     Atomic      Atomic             Coordinates (Angstroms)
 Number     Number       Type             X           Y           Z
 ---------------------------------------------------------------------
      1          6           0        1.036218   -0.618772   -0.111759
      2          6           0       -1.187228   -0.114815    0.076159
      3          6           0        1.071801    0.834505    0.192342
      4          8           0       -0.334665   -1.132430    0.008041
      5          8           0       -0.787986    1.021176   -0.228337
      6          1           0        1.501615    1.510142   -0.521632
      7          1           0        1.078485    1.143058    1.223327
      8          1           0       -2.091530   -0.315994    0.654454
      9          1           0        1.363812   -0.830397   -1.133154
     10          1           0        1.604079   -1.222285    0.598924
 ---------------------------------------------------------------------
 Rotational constants (GHZ):           8.2253129           6.9302653           4.0848294
 Leave Link  202 at Thu Jul  9 07:41:42 2026, MaxMem=   268435456 cpu:               0.0 elap:               0.0
 (Enter /sw/isaac/applications/gaussian/16C01/rhel8_cascadelake_binary_x86_64_avx2/g16/l9999.exe)
 Unable to Open any file for archive entry.
 1\1\GINC-GEN1443\FTS\External='/lustre/isaac24/scratch/usuresh3/xtb-ga
 ussian/xtb-g'\ZDO\C3H5O2(2)\USURESH3\09-Jul-2026\0\\#p External="/lust
 re/isaac24/scratch/usuresh3/xtb-gaussian/xtb-g" Opt=(TS, CalcFC, NoEig
 enTest, NoMicro)\\Title: migration ts search via xTB-Gaussian\\0,2\C,1
 .036218,-0.618772,-0.111759\C,-1.187228,-0.114815,0.076159\C,1.071801,
 0.834505,0.192342\O,-0.334665,-1.13243,0.008041\O,-0.787986,1.021176,-
 0.228337\H,1.501615,1.510142,-0.521632\H,1.078485,1.143058,1.223327\H,
 -2.09153,-0.315994,0.654454\H,1.363812,-0.830397,-1.133154\H,1.604079,
 -1.222285,0.598924\\Version=ES64L-G16RevC.01\HF=-16.9995167\S2=0.\S2-1
 =0.\S2A=0.\RMSD=0.000e+00\RMSF=2.278e-05\Dipole=0.5502429,-0.3379948,0
 .3001215\PG=C01 [X(C3H5O2)]\\@
 The archive entry for this job was punched.


 EVERYTHING'S GOT A MORAL, IF ONLY YOU CAN FIND IT.

                                    -- LEWIS CARROL, ALICE IN WONDERLAND
 Job cpu time:       0 days  0 hours  0 minutes  0.5 seconds.
 Elapsed time:       0 days  0 hours  0 minutes  0.3 seconds.
 File lengths (MBytes):  RWF=      6 Int=      0 D2E=      0 Chk=      1 Scr=      1
 Normal termination of Gaussian 16 at Thu Jul  9 07:41:43 2026.
