 Entering Gaussian System
 *********************************************
 Gaussian 98:
 frequency output generated by the xtb code
 *********************************************
                         Standard orientation:
 --------------------------------------------------------------------
  Center     Atomic     Atomic              Coordinates (Angstroms)
  Number     Number      Type              X           Y           Z
 --------------------------------------------------------------------
    1          6             0        0.077541    0.628819   -0.000001
    2          1             0       -1.007995    0.230977    0.000003
    3          7             0        0.077535   -0.571984    0.000001
 --------------------------------------------------------------------
     1 basis functions        1 primitive gaussians
     1 alpha electrons        1 beta electrons

 Harmonic frequencies (cm**-1), IR intensities (km*mol⁻¹),
 Raman scattering activities (A**4/amu), Raman depolarization ratios,
 reduced masses (AMU), force constants (mDyne/A) and normal coordinates:
                      1                      2                      3
                        a                      a                      a 
 Frequencies -- -1492.1962              2012.5303              2409.0812
 Red. masses --     2.6857                12.6695                 1.7781
 Frc consts  --     0.0000                 0.0000                 0.0000
 IR Inten    --   270.2786                 9.5870                24.9553
 Raman Activ --     0.0000                 0.0000                 0.0000
 Depolar     --     0.0000                 0.0000                 0.0000
 Atom AN      X      Y      Z        X      Y      Z        X      Y      Z
   1   6     0.21   0.19  -0.00     0.05  -0.71   0.00    -0.21  -0.11   0.00
   2   1     0.14  -0.92   0.00    -0.12  -0.10   0.00     0.96   0.09  -0.00
   3   7    -0.23   0.07   0.00    -0.01   0.68  -0.00    -0.06   0.08   0.00
