5
 energy: -7.636960363196 gnorm: 0.000223970056 xtb: 6.7.1 (edcfbbe)
H            9.26073026185470        9.92267864861805       10.00703155785247
H           11.59981732735741       11.54979971374425       10.00691281503242
H            9.36235501978361       11.80216792419485       10.00676524035489
C            9.81764382552820       10.83358171519352       10.00639883134844
O           11.17498778547607       10.68649794424933       10.00708324541178
