5
Properties=species:S:1:pos:R:3:forces:R:3:charge:R:1 0=T 2=T energy=-207.8122764937056 free_energy=-207.8122764937056 dipole="0.02180155201444156 0.3640031182350605 0.00012195587362445222" pbc="F F F"
H        9.26073026       9.92267865      10.00703156      -0.00027954       0.00104752       0.00013292       0.04856457
H       11.59981733      11.54979971      10.00691282       0.00364118       0.00207192      -0.00008912       0.30007536
H        9.36235502      11.80216792      10.00676524      -0.00122205      -0.00046254       0.00022978       0.02063147
C        9.81764383      10.83358172      10.00639883       0.00623033      -0.00237751      -0.00051897      -0.01680056
O       11.17498779      10.68649794      10.00708325      -0.00836992      -0.00027938       0.00024539      -0.35247083
5
Properties=species:S:1:pos:R:3:forces:R:3:charge:R:1 0=T 2=T energy=-207.81745152425424 free_energy=-207.81745152425424 dipole="0.03140953273276033 0.3596866682653882 0.030733772565106707" pbc="F F F"
H        9.29394831       9.84247129      10.09293912      -0.00311807      -0.00246182      -0.00974188       0.04736161
H       11.63284794      11.45597421      10.04813003      -0.00263213       0.00108320      -0.00321242       0.30046902
H        9.39367656      11.70679524      10.11771913      -0.00207234       0.00645326      -0.00655607       0.01920848
C        9.84827125      10.74791400       9.95126685       0.00193266      -0.00339930       0.02157508      -0.01437578
O       11.19659079      10.59963724      10.10375209       0.00588988      -0.00167534      -0.00206471      -0.35266334
5
Properties=species:S:1:pos:R:3:forces:R:3:charge:R:1 0=T 2=T energy=-207.81489445574573 free_energy=-207.81489445574573 dipole="0.03793761357571176 0.3534948691977952 0.007817204659458205" pbc="F F F"
H        9.31209467       9.75134895      10.08687742      -0.01137051      -0.00345480       0.03988505       0.04750946
H       11.68791655      11.31601874      10.09810867      -0.01711507       0.01336349       0.04595416       0.30029177
H        9.43911480      11.61210882      10.24508900       0.01610373       0.00098842      -0.00289113       0.02004538
C        9.88259443      10.65540810      10.04286420       0.00680487      -0.00178983      -0.03920099      -0.01459912
O       11.22778865      10.47456610      10.18464473       0.00557698      -0.00910727      -0.04374710      -0.35324748
5
Properties=species:S:1:pos:R:3:forces:R:3:charge:R:1 0=T 2=T energy=-207.74653279349718 free_energy=-207.74653279349718 dipole="0.03907443422630057 0.3264876085292297 -0.14731403962397838" pbc="F F F"
H        9.31050835       9.78406402       9.94921309      -0.11117919      -0.04001356       0.14767824       0.04573048
H       11.71789991      11.21285010       9.95461320       0.04490882       0.17576354       0.18422831       0.29889655
H        9.44023880      11.62181103      10.33944464       0.05427358       0.00206062      -0.05707775       0.02251226
C        9.88293537      10.65972734      10.16529978       0.00573298      -0.00986743      -0.08516211      -0.00850710
O       11.22192327      10.46020469      10.29380499       0.00626381      -0.12794317      -0.18966670      -0.35863219
5
Properties=species:S:1:pos:R:3:forces:R:3:charge:R:1 0=T 2=T energy=-207.5593041401671 free_energy=-207.5593041401671 dipole="-0.0031805720883660133 0.2276831477479751 -0.3184226136835386" pbc="F F F"
H        9.39000874       9.81281092       9.83324965      -0.25475956      -0.07781231       0.13197936       0.03991815
H       11.67387408      11.06506054       9.79214309       0.53003522       0.27307015       0.14397658       0.30406695
H        9.40487450      11.62030133      10.39539304      -0.05674563      -0.00475073      -0.09861278       0.02931256
C        9.88956154      10.67674799      10.22021417      -0.14361280      -0.07992817       0.12033612       0.00922828
O       11.21816979      10.55493628      10.46694367      -0.07491724      -0.11057893      -0.29767928      -0.38252594
5
Properties=species:S:1:pos:R:3:forces:R:3:charge:R:1 0=T 2=T energy=-206.95543229025913 free_energy=-206.95543229025913 dipole="-0.11901814636870023 0.1538902031603864 -0.418149221306167" pbc="F F F"
H        9.50557221       9.83895402       9.76756009      -0.39304775      -0.18803136      -0.06272331       0.04463246
H       11.43031652      10.94941219       9.72519855       2.10217588      -0.05879177       0.39848804       0.34213705
H        9.43626226      11.61457317      10.43131037      -0.41271002       0.16503414       0.06223631       0.04452168
C        9.95000508      10.71760960      10.17433695      -1.03708049      -0.36225785       0.81957461      -0.00649391
O       11.25555930      10.60568905      10.61182745      -0.25933761       0.44404684      -1.21757565      -0.42479727
5
Properties=species:S:1:pos:R:3:forces:R:3:charge:R:1 0=T 2=T energy=-206.12479530276474 free_energy=-206.12479530276474 dipole="-0.25296256358135716 0.17042650614716126 -0.4766790906110739" pbc="F F F"
H        9.54563452       9.85968930       9.77106905      -0.13974973      -0.07595431      -0.01398771       0.05660213
H       11.21239415      10.95523676       9.68492529       0.68472264      -0.16025613       0.49125658       0.36057277
H        9.47755387      11.59948897      10.42517570      -0.16630642       0.08273130       0.04710457       0.05668890
C       10.05644419      10.75428443      10.09092012      -0.47502011      -0.08885050       0.10605233      -0.01191500
O       11.28481990      10.56010148      10.73652168       0.09635364       0.24232964      -0.63042577      -0.46194880
5
Properties=species:S:1:pos:R:3:forces:R:3:charge:R:1 0=T 2=T energy=-206.6061664117737 free_energy=-206.6061664117737 dipole="-0.35637893029204043 0.17395606659969534 -0.4980801786401724" pbc="F F F"
H        9.57563431       9.87812125       9.76810098       0.32993843       0.18750623      -0.03294279       0.06027299
H       11.09433775      11.00799241       9.53169175      -1.29379419       0.58579184      -1.70528345       0.24469983
H        9.50801696      11.58972594      10.41231389       0.33086763      -0.09021528      -0.13242903       0.06027633
C       10.15730593      10.75245737      10.10617348       1.10839435      -0.01852395       0.16184148       0.04766246
O       11.24162431      10.50028973      10.89046728      -0.47540622      -0.66455883       1.70881379      -0.41291161
5
Properties=species:S:1:pos:R:3:forces:R:3:charge:R:1 0=T 2=T energy=-207.33708067040084 free_energy=-207.33708067040084 dipole="-0.3522198696254908 0.18342088370049253 -0.5168580783191137" pbc="F F F"
H        9.63891168       9.89257533       9.76079858       0.24497461       0.04118316      -0.04716669       0.05694061
H       10.95887200      11.07042057       9.36157802      -0.52803336       0.22429983      -0.66784413       0.16314682
H        9.57397675      11.59095326      10.40364640       0.23158084       0.02324935      -0.04869550       0.05765618
C       10.23811625      10.74396413      10.14065819       0.33572635      -0.05048023       0.17386431       0.07376776
O       11.16329953      10.44171596      11.03507949      -0.28424844      -0.23825211       0.58984201      -0.35151137
5
Properties=species:S:1:pos:R:3:forces:R:3:charge:R:1 0=T 2=T energy=-207.44694208556322 free_energy=-207.44694208556322 dipole="-0.37542636692351644 0.2952862284899923 -0.49026880719135774" pbc="F F F"
H        9.65533330       9.92006780       9.70776838      -0.01400060      -0.02110346       0.00046042       0.04195580
H       10.87830241      11.19888965       9.30809091       0.02190685       0.00847830       0.00888861       0.10659607
H        9.65957286      11.56665189      10.45712928      -0.01385332       0.01899384      -0.00306457       0.11534079
C       10.29715712      10.71399951      10.12637855      -0.00626980      -0.00503190       0.00839507       0.07869280
O       11.08429097      10.33565284      11.10515695       0.01221687      -0.00133677      -0.01467953      -0.34258547
5
Properties=species:S:1:pos:R:3:forces:R:3:charge:R:1 0=T 2=T energy=-207.44707872830958 free_energy=-207.44707872830958 dipole="-0.3550967995059871 0.2864737512639748 -0.5106337107541136" pbc="F F F"
H        9.71236655       9.79376631       9.77117209      -0.01020181      -0.01174138       0.00105908       0.04166242
H       10.94564007      11.06839205       9.39824965       0.01571795       0.00816984      -0.00738246       0.11069052
H        9.68699096      11.45687280      10.49370966      -0.01421661       0.01087617       0.00013710       0.11177103
C       10.33411415      10.59708299      10.20234560       0.00123231      -0.00127870       0.00569784       0.07872383
O       11.09351749      10.23509925      11.20857955       0.00746816      -0.00602593       0.00048844      -0.34284780
5
Properties=species:S:1:pos:R:3:forces:R:3:charge:R:1 0=T 2=T energy=-207.44709183962044 free_energy=-207.44709183962044 dipole="-0.3456835978132343 0.15929974466893726 -0.5690866506883834" pbc="F F F"
H        9.80008725       9.73118774       9.81443343       0.00015201       0.00195613      -0.00236614       0.11301117
H       10.98838365      10.90452076       9.42590762       0.00258863       0.00173687      -0.00154026       0.10929845
H        9.65757829      11.37258918      10.56887963       0.00059502       0.00292331      -0.00077786       0.04177518
C       10.36235270      10.57123555      10.28635004      -0.00544117      -0.00972301       0.00600034       0.07876394
O       11.11613565      10.12352814      11.26203558       0.00210551       0.00310670      -0.00131608      -0.34284875
