7
 energy: -10.356706262563 gnorm: 0.000487149030 xtb: 6.7.1 (edcfbbe)
H           11.46899539111803       10.77683041894312        9.71287266073799
H           10.94103082382201        9.32008522650568       10.59122618381297
H            9.50316504599717       12.05096807462777       10.59174717998786
H           11.46859741262073       10.77681205180416       11.46986508129546
C           10.94384976735372       10.40677594822806       10.59124275195604
C            9.54801697631602       10.94277913210993       10.59085899098459
O            8.54734702677231       10.28546237378128       10.59072321622509
