4
 energy: -5.120052998110 gnorm: 0.000511629730 xtb: 6.7.1 (edcfbbe)
H            9.49286513058290       10.87219064180477        9.44264865227806
H            9.17420281560190       11.36167232962975       11.14740828723814
C            9.80704167134746       10.79888904202240       10.47485558918482
C           10.82303311346774       10.11669067654308       10.86073587529898
