10
Properties=species:S:1:pos:R:3:forces:R:3:charge:R:1 0=T 2=T energy=-463.3762446801344 free_energy=-463.3762446801344 dipole="0.47659488312592013 -0.013311268507022782 0.08464863463158213" pbc="F F F"
C       11.23748266       9.24276696      10.03224688      -0.00870168      -0.00523672       0.00079556       0.07643946
C        9.13357385      10.01558251      10.06108180      -0.00737337       0.00941744      -0.00494788       0.13472933
C       11.25228100      10.75324593      10.32454987      -0.01316419       0.01018713      -0.00195914       0.07558987
O        9.90152582      11.14746094      10.18810900       0.00814618      -0.00562002       0.00411137      -0.27130100
O        9.88539321       8.87285648      10.18870841       0.00649509      -0.00601288       0.00458434      -0.26985252
H       11.56084827       9.02915215       9.00521789       0.00253860      -0.00167906      -0.00673512       0.04686804
H       11.86596456      11.31779754       9.61955131       0.00385715       0.00201111      -0.00171501       0.05286541
H        8.19842061      10.01104106      10.60306487      -0.00124280      -0.00036946      -0.00106185       0.05316667
H       11.84025985       8.66072056      10.73086201       0.00617476      -0.00311346       0.00341759       0.05478702
H       11.58261863      10.96957916      11.34835294       0.00327026       0.00041592       0.00351015       0.04670772
10
Properties=species:S:1:pos:R:3:forces:R:3:charge:R:1 0=T 2=T energy=-463.2058735048114 free_energy=-463.2058735048114 dipole="0.4754222119087056 -0.03670413212781663 -0.0192511764426991" pbc="F F F"
C       11.17800413       9.48064045      10.03754054      -0.19925412      -0.10609367       0.02266801       0.07762176
C        9.07913831      10.33486000      10.14827731       0.14640595      -0.07806531      -0.53123470       0.13375230
C       11.26366689      10.99822486      10.27667635      -1.29198567       0.27564098       0.26054636       0.06592427
O        9.86098045      11.38063484      10.57488071       1.44871593      -0.24557232      -0.21202641      -0.27731766
O        9.79935181       9.17671605      10.01701793       0.06469541      -0.43221436      -0.04018666      -0.27620282
H       11.60171352       9.15331507       9.08113682       0.13271664       0.17161596       0.04705166       0.05224455
H       11.63270085      11.54065342       9.39244029      -0.33073421      -0.06338668       0.15439842       0.05565592
H        8.04734529      10.17281343      10.40435886       0.22881505       0.44184238       0.35449463       0.05435803
H       11.62934426       8.89771176      10.84822512       0.08321752       0.05965223       0.00161344       0.05258962
H       11.89025069      11.26656387      11.13450619      -0.28259249      -0.02341921      -0.05732474       0.06137403
10
Properties=species:S:1:pos:R:3:forces:R:3:charge:R:1 0=T 2=T energy=-462.82787653202774 free_energy=-462.82787653202774 dipole="0.13843506291415328 -0.41293169857164197 -0.11671557211471413" pbc="F F F"
C       11.25642599       9.52264804      10.02960746       0.01373141      -0.00257203       0.00602547       0.07188814
C        9.02371909      10.35221984      10.34018995       0.00799564      -0.02944749      -0.00268505       0.34593580
C       11.71968673      10.89760302      10.18698031      -0.00271898      -0.02182700      -0.00110859      -0.10599751
O        9.35379395      11.46347012      10.64029997       0.00377338       0.03847057       0.01434038      -0.35870431
O        9.78010056       9.34171731      10.02535418       0.02310377      -0.01013630      -0.02132463      -0.25044299
H       11.55139174       9.09441907       9.06577697      -0.01303614      -0.00404092       0.00272223       0.07160724
H       11.74600638      11.56010483       9.34562422      -0.01372619       0.02108766      -0.01547471       0.05789393
H        7.96652145      10.02545337      10.28647507      -0.00910864       0.01120369      -0.00051083       0.03923692
H       11.59789080       8.87617208      10.84298229      -0.00342748      -0.00520921       0.01031399       0.06661593
H       11.98422035      11.28203666      11.15069512      -0.00658676       0.00247104       0.00770175       0.06196684
10
Properties=species:S:1:pos:R:3:forces:R:3:charge:R:1 0=T 2=T energy=-462.83337064834393 free_energy=-462.83337064834393 dipole="0.14726442109289795 -0.4239294543697716 0.006474046421381536" pbc="F F F"
C       11.22879874       9.56028957       9.99782382      -0.00525604      -0.00867055      -0.00183533       0.07322230
C        9.02564430      10.40992724      10.37858670       0.00145232      -0.00698681       0.02007821       0.34496438
C       11.73205150      10.91766511      10.19023012      -0.01380586      -0.02034684       0.01433496      -0.10642053
O        9.31648773      11.55345135      10.17417434      -0.00145270      -0.00309601      -0.02230793      -0.35971615
O        9.80413176       9.36431808      10.35721621       0.00955395       0.01378829      -0.01015733      -0.25055606
H       11.30596464       9.23557133       8.95618162       0.00131573       0.00946783       0.00588387       0.06393555
H       11.87763167      11.57422795       9.35776865       0.00730402       0.00930656      -0.00383872       0.06456071
H        8.00122597      10.07829425      10.63758727       0.00399028       0.00665782       0.00675081       0.03855409
H       11.72719294       8.83475499      10.65081697       0.00476009      -0.00194820      -0.00602014       0.07518703
H       11.87796627      11.30109828      11.18117172      -0.00786180       0.00182792      -0.00288840       0.05626869
10
Properties=species:S:1:pos:R:3:forces:R:3:charge:R:1 0=T 2=T energy=-462.8375814815146 free_energy=-462.8375814815146 dipole="0.20107886425360644 -0.3802683054372248 0.13674882495465515" pbc="F F F"
C       11.24068818       9.59495682      10.05510632      -0.00133810      -0.01125973      -0.00616557       0.07794240
C        9.00075090      10.33170756      10.13547539       0.00240616       0.00790973       0.00389463       0.34195278
C       11.77188831      10.89870185      10.45745310      -0.01470599      -0.00869161      -0.00195631      -0.10615903
O        9.24023340      11.35199210       9.56047641       0.00954029      -0.00082462       0.00880705      -0.36688105
O        9.85152601       9.38680697      10.46588654       0.00366120      -0.00396415      -0.00522234      -0.25100972
H       11.28876091       9.45949525       8.97094028       0.00319729       0.00228002       0.00038734       0.06374225
H       12.09053457      11.61327473       9.72774650       0.01514856       0.00601792      -0.00608799       0.06850405
H        7.99438433      10.03675983      10.48331932      -0.00851245      -0.00406859       0.00336821       0.03454552
H       11.75192159       8.76179629      10.55449862       0.00023692       0.00487196       0.00313334       0.08093537
H       11.70568809      11.19749088      11.48606478      -0.00963389       0.00772908      -0.00015836       0.05642742
10
Properties=species:S:1:pos:R:3:forces:R:3:charge:R:1 0=T 2=T energy=-462.82005330664595 free_energy=-462.82005330664595 dipole="0.23841512822781746 -0.29934247700359556 0.2454713768672597" pbc="F F F"
C       11.22196675       9.68859156      10.09116393      -0.00141667      -0.00554462      -0.00310448       0.07500792
C        8.95041124      10.35217278      10.03678330      -0.00018587       0.00432333      -0.00389269       0.34146199
C       11.84774371      10.94225125      10.52235484      -0.00389925      -0.00425888       0.00072749      -0.10184184
O        9.13179857      11.17546906       9.19038917       0.00393811      -0.00256658       0.00327400      -0.37142730
O        9.84450618       9.55761794      10.58273613      -0.00178611      -0.00455012       0.00351757      -0.25276137
H       11.18410180       9.61508030       9.00081487       0.00291381       0.00508185      -0.00286709       0.06783074
H       11.88096977      11.78562214       9.86194299       0.01583656       0.00485605      -0.01063970       0.07177291
H        7.96623924      10.13264980      10.48937970      -0.00589378      -0.00307521       0.00798118       0.03311618
H       11.71212746       8.81176475      10.52396540       0.00062890       0.00100253      -0.00277899       0.07726168
H       12.09460131      11.08186418      11.55745751      -0.01013570       0.00473165       0.00778272       0.05957910
10
Properties=species:S:1:pos:R:3:forces:R:3:charge:R:1 0=T 2=T energy=-462.818269207617 free_energy=-462.818269207617 dipole="0.2493287685386345 -0.25197812099589817 0.29418902330099944" pbc="F F F"
C       11.20768641       9.73898370      10.12353804       0.00002472       0.00178335       0.00196104       0.07367571
C        8.92136948      10.36056784       9.97490964      -0.00118787       0.00333474      -0.00075897       0.34164143
C       11.88004980      10.96898419      10.55410710       0.00191579      -0.00120539       0.00090243      -0.10128849
O        9.08168994      11.03971904       9.00509535       0.00130460      -0.00766863      -0.00864330      -0.37266404
O        9.82997422       9.67038437      10.62745874      -0.00264435      -0.00010308       0.00289609      -0.25185808
H       11.14201128       9.68724025       9.03045695       0.00123036       0.00305012       0.00019903       0.07511770
H       11.68566220      11.88647675      10.03299601      -0.00148680       0.00545333      -0.00020375       0.06981256
H        7.94565198      10.20712937      10.47133749      -0.00451714      -0.00116265       0.00425056       0.03288210
H       11.67439707       8.84209426      10.53327703      -0.00220589       0.00046660      -0.00375897       0.07187827
H       12.41396484      11.00182884      11.48340842       0.00756658      -0.00394838       0.00315583       0.06080286
10
Properties=species:S:1:pos:R:3:forces:R:3:charge:R:1 0=T 2=T energy=-462.8272639131188 free_energy=-462.8272639131188 dipole="0.25864554840024534 -0.2183602212843424 0.32092095468484966" pbc="F F F"
C       11.18515919       9.80627929      10.15321553       0.00035494       0.00356063       0.00241503       0.07421991
C        8.89198133      10.37433603       9.92378650      -0.00106349       0.00596456      -0.00263942       0.34135633
C       11.89732927      11.01159826      10.58658868       0.00381134       0.00201331      -0.00044141      -0.10444826
O        9.03898953      10.91096397       8.86595298       0.00096497      -0.01383713      -0.00719405      -0.37400359
O        9.81208740       9.78834121      10.65764429      -0.00341844       0.00476678       0.00228895      -0.24980314
H       11.10781268       9.76796038       9.05645437      -0.00116586       0.00061039       0.00019401       0.08306415
H       11.56681824      11.96884534      10.23142225      -0.00652157       0.00347307       0.01057401       0.06601659
H        7.92208851      10.28688006      10.44617026      -0.00338978      -0.00163942       0.00066786       0.03278906
H       11.63359760       8.89139541      10.54102038      -0.00373719       0.00099447      -0.00280235       0.07005790
H       12.65226481      10.96885320      11.34517038       0.01416507      -0.00590666      -0.00306264       0.06075105
10
Properties=species:S:1:pos:R:3:forces:R:3:charge:R:1 0=T 2=T energy=-462.83702586976756 free_energy=-462.83702586976756 dipole="0.2639946593256484 -0.18711835726629866 0.3345330757088789" pbc="F F F"
C       11.15606479       9.89894078      10.17627018       0.00030705       0.00454764       0.00176184       0.07547710
C        8.85997088      10.40553606       9.88195592      -0.00074077       0.00633546      -0.00275537       0.34071477
C       11.90894795      11.07579260      10.61715093       0.00417903       0.00317113      -0.00196895      -0.10891413
O        8.99683793      10.80095366       8.76193103       0.00187542      -0.01438571      -0.00476326      -0.37514787
O        9.79090072       9.92794423      10.67919618      -0.00428591       0.00473541       0.00313174      -0.24703378
H       11.07510296       9.86659408       9.07602253      -0.00265132       0.00001607      -0.00095185       0.08840194
H       11.51020517      12.05335829      10.42666707      -0.00244039       0.00120716       0.01302203       0.06322212
H        7.89420852      10.37910800      10.41720523      -0.00256083      -0.00230382      -0.00016606       0.03306587
H       11.58603883       8.96679892      10.54586252      -0.00335514       0.00129168      -0.00280041       0.07029425
H       12.81427557      10.97892671      11.17982383       0.00967286      -0.00461504      -0.00450971       0.05991973
10
Properties=species:S:1:pos:R:3:forces:R:3:charge:R:1 0=T 2=T energy=-462.8436734550481 free_energy=-462.8436734550481 dipole="0.26502478046054334 -0.14909208488708345 0.3430546018857459" pbc="F F F"
C       11.12412447      10.01714116      10.18762324      -0.00010995       0.00394343       0.00177101       0.07642583
C        8.82391892      10.45641639       9.84947593      -0.00072151       0.00328082       0.00134188       0.34006033
C       11.92327207      11.15870978      10.63908555       0.00225386       0.00184113      -0.00138380      -0.11282085
O        8.94748822      10.70531094       8.68633190       0.00207737      -0.01061121      -0.00549665      -0.37590232
O        9.76835362      10.09688443      10.69248612      -0.00418532       0.00272541       0.00225515      -0.24450583
H       11.04058076       9.98976572       9.08508361      -0.00158206       0.00108207      -0.00079018       0.09129297
H       11.50749822      12.14578801      10.58954711       0.00075724       0.00028769       0.00883258       0.06210750
H        7.86325492      10.48876350      10.39241171      -0.00104524      -0.00086084      -0.00007597       0.03365784
H       11.52924996       9.06578196      10.54075966      -0.00236055       0.00105439      -0.00311723       0.07069551
H       12.90680756      11.02026741      11.03729531       0.00491615      -0.00274289      -0.00333679       0.05898902
10
Properties=species:S:1:pos:R:3:forces:R:3:charge:R:1 0=T 2=T energy=-462.8472077060977 free_energy=-462.8472077060977 dipole="0.26464546495142355 -0.10548999654091462 0.3483754026770458" pbc="F F F"
C       11.09170561      10.15318614      10.18632954      -0.00040107       0.00270243       0.00117638       0.07705225
C        8.78583867      10.52339394       9.82298799      -0.00008840       0.00227514      -0.00127092       0.33946409
C       11.93766645      11.25268904      10.65571666       0.00068875       0.00039544      -0.00034511      -0.11569832
O        8.89464453      10.62625411       8.63627527       0.00049368      -0.00649268      -0.00039814      -0.37644046
O        9.74465738      10.28434043      10.69266849      -0.00241989       0.00062482       0.00101735      -0.24266850
H       11.00780453      10.13770581       9.08230561       0.00001471       0.00092173      -0.00015601       0.09281986
H       11.53439802      12.24370256      10.71700905       0.00093833       0.00009413       0.00379502       0.06221061
H        7.83088358      10.61318999      10.36868042       0.00002234      -0.00001250       0.00003913       0.03430002
H       11.46521228       9.18020565      10.52004267      -0.00148223       0.00097537      -0.00236334       0.07061667
H       12.95284112      11.07566429      10.94398025       0.00223377      -0.00148388      -0.00149435       0.05834378
10
Properties=species:S:1:pos:R:3:forces:R:3:charge:R:1 0=T 2=T energy=-462.8482180641677 free_energy=-462.8482180641677 dipole="0.26381432524268683 -0.07171155874982972 0.34723513588177024" pbc="F F F"
C       11.05813367      10.29514171      10.18038034      -0.00157910      -0.00027699       0.00095239       0.07795407
C        8.75085982      10.61539813       9.79707346       0.00113124      -0.00023849      -0.01358197       0.33888550
C       11.93938237      11.35461120      10.67588079       0.00580368      -0.00158969      -0.01133854      -0.11791927
O        8.85444477      10.61037046       8.60513780      -0.00154172      -0.00142252       0.01984093      -0.37688544
O        9.71623567      10.46543205      10.67992916      -0.00020933       0.00132419      -0.00423511      -0.24120308
H       10.98375777      10.29571958       9.07479128      -0.00005482      -0.00010450       0.00026777       0.09308433
H       11.55448224      12.34319570      10.82394636      -0.00156525       0.00069834       0.00535019       0.06291455
H        7.79776892      10.74754044      10.33688158       0.00121368       0.00074809      -0.00198076       0.03465043
H       11.40102187       9.30301627      10.49486525       0.00028579       0.00000020      -0.00011752       0.07061131
H       12.97159578      11.15092968      10.87160050      -0.00348418       0.00086136       0.00484261       0.05790760
